108
Atom. timestep:0
1 16.2134724504 16.2139512347 16.2147927851 -152.763469944 -104.885039756 -20.7299953563 -0.000704518903168 -0.000704518903168 -0.000704518903168
1 0.000571421116098 2.70280937808 2.70399531097 57.1336048706 30.9293014038 149.522590019 -0.000704518903168 -0.000704518903168 -0.000704518903168
1 2.70304933711 2.70252611463 16.2131940541 54.9252046887 2.60295684685 -180.603090499 -0.000704518903168 -0.000704518903168 -0.000704518903168
1 2.70334843514 0.00202760335886 2.70301319208 84.8350075122 202.751828215 51.3107010338 -0.000704518903168 -0.000704518903168 -0.000704518903168
1 16.2142498507 0.000567465389503 5.40398454958 -75.0234339751 56.7380322136 -101.55354795 -0.000704518903168 -0.000704518903168 -0.000704518903168
1 0.000130132071164 2.70200354552 8.10758781436 13.0047006595 -49.6539543071 8.78994232341 -0.000704518903168 -0.000704518903168 0.000704518903168
1 2.70054368852 2.70123542811 5.405064595 -195.639652896 -126.465694064 6.45099312253 -0.000704518903168 -0.000704518903168 -0.000704518903168
1 2.7023849096 16.2144462235 8.10755406998 -11.5175464119 -55.3861601017 5.4155045444 -0.000704518903168 -0.000704518903168 0.000704518903168
1 16.2139158357 16.214608164 10.8093146849 -108.424937061 -39.1921108742 -68.5230057363 -0.000704518903168 -0.000704518903168 0.000704518903168
1 16.2137936686 2.70449120855 13.5140669453 -120.641645734 199.112347595 156.703039333 -0.000704518903168 -0.000704518903168 0.000704518903168
1 2.7021137347 2.70378429158 10.8106713483 -38.6350363147 128.420651226 67.1433369491 -0.000704518903168 -0.000704518903168 0.000704518903168
1 2.70178344195 16.2148828294 13.5124505668 -71.66431053 -11.7255651458 -4.93480994914 -0.000704518903168 -0.000704518903168 0.000704518903168
1 16.2144514223 5.40441864767 0.000297093014331 -54.8662782039 -58.1437387591 29.7007948694 -0.000704518903168 -0.000704518903168 -0.000704518903168
1 16.214460989 8.1075548959 2.70143199531 -53.9096109449 5.49809592764 -106.808974248 -0.000704518903168 0.000704518903168 -0.000704518903168
1 2.70347781108 8.10849486528 0.000581590579472 97.7726009916 99.4950332995 58.1505512014 -0.000704518903168 0.000704518903168 -0.000704518903168
1 2.70064277888 5.40354111758 2.70297553545 -185.730616985 -145.896746997 47.5450384286 -0.000704518903168 -0.000704518903168 -0.000704518903168
1 16.2139577349 5.40485906401 5.40536140768 -104.235020476 -14.1021057708 36.1322610861 -0.000704518903168 -0.000704518903168 -0.000704518903168
1 0.000888819956233 8.10936372178 8.10813711132 88.8734886809 186.380683675 63.7196376988 -0.000704518903168 0.000704518903168 0.000704518903168
1 2.70291105637 8.10823194509 5.40610561767 41.097130823 73.2030153648 110.553260276 -0.000704518903168 0.000704518903168 -0.000704518903168
1 2.70306430051 5.40505365866 8.10884571244 56.4215441005 5.35735948577 134.579749969 -0.000704518903168 -0.000704518903168 0.000704518903168
1 8.21933874437e-05 5.40446319072 10.8108142905 8.21083231822 -53.6894344132 81.4375593897 -0.000704518903168 -0.000704518903168 0.000704518903168
1 16.2139883684 8.1067709238 13.5136264585 -101.171666583 -72.8991132645 112.654358504 -0.000704518903168 0.000704518903168 0.000704518903168
1 2.70175034255 8.10953210946 10.8108178071 -74.9742506019 203.219451357 81.7892146976 -0.000704518903168 0.000704518903168 0.000704518903168
1 2.70302514813 5.40460791975 13.5130007008 52.5063063839 -39.2165311332 50.0785857727 -0.000704518903168 -0.000704518903168 0.000704518903168
1 16.2147407625 10.8089649484 0.00183501538387 -25.9322527292 -103.496657576 183.493030839 -0.000704518903168 0.000704518903168 -0.000704518903168
1 0.00029992568672 13.5113663507 2.70232296599 29.9840621065 -113.356419612 -17.7119071973 -0.000704518903168 0.000704518903168 -0.000704518903168
1 2.70253111992 13.5126276363 0.00035233476713 3.10348541954 12.7721394241 35.224970114 -0.000704518903168 0.000704518903168 -0.000704518903168
1 2.70257897296 10.8082379679 2.70285072141 7.88878927006 -176.194698357 35.0636343876 -0.000704518903168 0.000704518903168 -0.000704518903168
1 16.2149091448 10.8111519934 5.40373698552 -9.09402592189 115.207842352 -126.309953658 -0.000704518903168 0.000704518903168 -0.000704518903168
1 0.00121482897285 13.5141447582 8.10769742588 121.474390134 164.484327128 19.7510938024 -0.000704518903168 0.000704518903168 0.000704518903168
1 2.70194936935 13.5128044835 5.40690279058 -55.0715707124 30.4568606421 190.270550025 -0.000704518903168 0.000704518903168 -0.000704518903168
1 2.70301407586 10.8109372339 8.10859273268 51.3990792094 93.7318915436 109.281773998 -0.000704518903168 0.000704518903168 0.000704518903168
1 0.000806102958825 10.8105687686 10.8097487628 80.6017889931 56.8853628975 -25.1152115236 -0.000704518903168 0.000704518903168 0.000704518903168
1 0.000147767629036 13.5121144848 13.5126823049 14.7682564354 -38.5430161162 18.2389960292 -0.000704518903168 0.000704518903168 0.000704518903168
1 2.70208083697 13.511768195 10.8112109887 -41.9248089418 -73.1719958495 121.107373291 -0.000704518903168 0.000704518903168 0.000704518903168
1 2.70112594546 10.8086091182 13.5129352835 -137.41395902 -139.079671793 43.5368597738 -0.000704518903168 0.000704518903168 0.000704518903168
1 5.40560508288 0.00236664051727 0.00113402018264 60.4997817255 236.655543839 113.393511165 -0.000704518903168 -0.000704518903168 -0.000704518903168
1 5.40360605333 2.70317115016 2.70344799621 -139.403172431 67.1065096845 94.7911142919 -0.000704518903168 -0.000704518903168 -0.000704518903168
1 8.10781164961 2.70142095772 0.00077913853609 31.1734671169 -107.912733859 77.9053467368 0.000704518903168 -0.000704518903168 -0.000704518903168
1 8.10852942419 0.00105329633085 2.70463383378 102.950925097 105.321126038 213.374870453 0.000704518903168 -0.000704518903168 -0.000704518903168
1 5.40429998186 4.9966203347e-05 5.40650766445 -70.010319598 4.98811392918 150.757937742 -0.000704518903168 -0.000704518903168 -0.000704518903168
1 5.40622210682 2.70051541307 8.10825775107 122.202174396 -198.467197959 75.7836127151 -0.000704518903168 -0.000704518903168 0.000704518903168
1 8.10675233099 2.70171693045 5.40479849507 -74.758393716 -78.3154608183 -20.158999739 0.000704518903168 -0.000704518903168 -0.000704518903168
1 8.10576367091 16.213598662 8.10603183231 -173.624401699 -140.142304068 -146.808261778 0.000704518903168 -0.000704518903168 0.000704518903168
1 5.40554078228 0.000414905314809 10.8091271399 54.069721543 41.4820248418 -87.2775065633 -0.000704518903168 -0.000704518903168 0.000704518903168
1 5.40510222855 2.70378670231 13.5123971154 10.2143486861 128.661724128 -10.279955605 -0.000704518903168 -0.000704518903168 0.000704518903168
1 8.10617769267 2.70298179777 10.8094409056 -132.222225997 48.1712707417 -55.9009310179 0.000704518903168 -0.000704518903168 0.000704518903168
1 8.10738057744 0.000773973525001 13.5136517594 -11.9337496663 77.3888456312 115.184443121 0.000704518903168 -0.000704518903168 0.000704518903168
1 5.40548965953 5.40578299758 16.2139184527 48.9574467398 78.2912507181 -108.163237223 -0.000704518903168 -0.000704518903168 -0.000704518903168
1 5.40527331217 8.10703809395 2.70123032739 27.3227103027 -46.1820979413 -126.97576687 -0.000704518903168 0.000704518903168 -0.000704518903168
1 8.10678192326 8.10880195916 0.00294772879285 -71.7991674376 130.204421116 294.764371025 0.000704518903168 0.000704518903168 -0.000704518903168
1 8.10667192108 5.40452268307 2.7030499465 -82.7993846863 -47.7401987583 54.9861428466 0.000704518903168 -0.000704518903168 -0.000704518903168
1 5.40468936633 5.4057438087 5.40539675697 -31.0718734213 74.3723634198 39.6671908303 -0.000704518903168 -0.000704518903168 -0.000704518903168
1 5.40528031289 8.10733139151 8.10955596025 28.022782589 -16.8523421477 205.604529886 -0.000704518903168 0.000704518903168 0.000704518903168
1 8.10645583525 8.10512444944 5.40598944226 -104.407968403 -237.546547676 98.9357186793 0.000704518903168 0.000704518903168 -0.000704518903168
1 8.10664289068 5.40572790431 8.10687069868 -85.7024245853 72.7819236823 -62.9216252688 0.000704518903168 -0.000704518903168 0.000704518903168
1 5.40510165875 5.40599464115 10.8092709 10.1573685603 99.4556076331 -72.9014937201 -0.000704518903168 -0.000704518903168 0.000704518903168
1 5.40425068376 8.10782682283 13.5131540196 -74.9401297405 32.6907895087 65.4104664935 -0.000704518903168 0.000704518903168 0.000704518903168
1 8.10618065888 8.10622609482 10.8100271104 -131.92560457 -127.382010656 2.71954886036 0.000704518903168 0.000704518903168 0.000704518903168
1 8.10785059761 5.40573083822 13.5120562958 35.0682675673 73.0753151965 -44.3619179558 0.000704518903168 -0.000704518903168 0.000704518903168
1 5.40669655404 10.8091171069 16.2133562352 169.646896651 -88.2808008565 -164.384983564 -0.000704518903168 0.000704518903168 -0.000704518903168
1 5.40317094963 13.5143007084 2.70350348906 -182.913542084 180.07934887 100.340398695 -0.000704518903168 0.000704518903168 -0.000704518903168
1 8.10579738751 13.5108735343 0.00048547572719 -170.252741127 -162.638064946 48.5390660348 0.000704518903168 0.000704518903168 -0.000704518903168
1 8.10824038362 10.8097061959 2.70174478683 74.0468674737 -29.3719077684 -75.5298232087 0.000704518903168 0.000704518903168 -0.000704518903168
1 5.40455752449 10.8094159874 5.40552746321 -44.256057353 -58.392756721 52.7378144541 -0.000704518903168 0.000704518903168 -0.000704518903168
1 5.40587025038 13.5130934878 8.10741622965 87.0165309077 59.3572815818 -8.36852809249 -0.000704518903168 0.000704518903168 0.000704518903168
1 8.10558167577 13.5127276208 5.40416299318 -191.823915092 22.7705861023 -83.7091876136 0.000704518903168 0.000704518903168 -0.000704518903168
1 8.1090074403 10.8089779924 8.10887432463 150.752535365 -102.192249612 137.440968884 0.000704518903168 0.000704518903168 0.000704518903168
1 5.40561679914 10.8096408449 10.8098208786 61.6714067749 -35.9070046861 -17.9036308701 -0.000704518903168 0.000704518903168 0.000704518903168
1 5.40630964797 13.5118418151 13.5120202746 130.956289801 -65.8099860062 -47.964033726 -0.000704518903168 0.000704518903168 0.000704518903168
1 8.10822136561 13.5120639854 10.8089246632 72.1450670075 -43.5929525203 -107.525176713 0.000704518903168 0.000704518903168 0.000704518903168
1 8.10539199091 10.8083036052 13.5118419065 -210.792400834 -169.630971864 -65.800841419 0.000704518903168 0.000704518903168 0.000704518903168
1 10.809883546 0.001090366472 0.000386089519656 -11.6368966083 109.028140128 38.600445345 0.000704518903168 -0.000704518903168 -0.000704518903168
1 10.807039952 2.70083824793 2.70072320188 -295.996287915 -166.183712786 -177.688317089 0.000704518903168 -0.000704518903168 -0.000704518903168
1 13.5121733967 2.70261986921 16.2140997425 -32.6518219191 11.9784146693 -90.034255251 0.000704518903168 -0.000704518903168 -0.000704518903168
1 13.5119276368 16.2146950008 2.70199076442 -57.2278160922 -30.5084256901 -50.9320638915 0.000704518903168 -0.000704518903168 -0.000704518903168
1 10.809555545 16.2147921387 5.40409840872 -44.4369935365 -20.7946402017 -90.1676334323 0.000704518903168 -0.000704518903168 -0.000704518903168
1 10.811617767 2.70384837007 8.10714238622 161.785207487 134.82849983 -35.7528713415 0.000704518903168 -0.000704518903168 0.000704518903168
1 13.5127222804 2.70114253536 5.40476259355 22.2365420163 -135.75496984 -23.7491509823 0.000704518903168 -0.000704518903168 -0.000704518903168
1 13.5125186242 16.2141714551 8.10706200028 1.87092937487 -82.8629993905 -43.7914650425 0.000704518903168 -0.000704518903168 0.000704518903168
1 10.8112484601 16.2136899845 10.809462562 124.854519618 -131.010052736 -53.735289805 0.000704518903168 -0.000704518903168 0.000704518903168
1 10.8111197929 2.70187597444 13.5122835168 111.987800529 -62.4110615084 -21.6398138888 0.000704518903168 -0.000704518903168 0.000704518903168
1 13.5126014359 2.7017849666 10.8100306993 10.1520960472 -71.5118459943 3.07843257403 0.000704518903168 -0.000704518903168 0.000704518903168
1 13.5125379071 16.2146203021 13.5122279645 3.79922052473 -37.9782948454 -27.1950462534 0.000704518903168 -0.000704518903168 0.000704518903168
1 10.8094530436 5.40390860919 16.213317185 -54.6871343339 -109.1475866 -168.290002507 0.000704518903168 -0.000704518903168 -0.000704518903168
1 10.8096303835 8.10749656597 2.70087280759 -36.9531394048 -0.33489676144 -162.727746678 0.000704518903168 0.000704518903168 -0.000704518903168
1 13.5115992042 8.10792065614 0.00123260413273 -90.0710749536 42.074119967 123.25190611 0.000704518903168 0.000704518903168 -0.000704518903168
1 13.5134224646 5.40416998806 2.70451821872 92.2549640903 -83.0097003264 201.813363994 0.000704518903168 -0.000704518903168 -0.000704518903168
1 10.8116415007 5.40471755392 5.40406655443 164.158571826 -28.2531141452 -93.3530625305 0.000704518903168 -0.000704518903168 -0.000704518903168
1 10.810430546 8.10649278096 8.1067771265 43.0631034362 -100.713397145 -72.2788433093 0.000704518903168 0.000704518903168 0.000704518903168
1 13.5113159207 8.10707539264 5.40442788911 -118.399421092 -42.4522298276 -57.2195949106 0.000704518903168 0.000704518903168 -0.000704518903168
1 13.5133269052 5.40345402933 8.10826908304 82.6990251318 -154.605572589 76.9168097936 0.000704518903168 -0.000704518903168 0.000704518903168
1 10.8101732175 5.40406322347 10.8110039168 17.3302537356 -93.6861585963 100.400190396 0.000704518903168 -0.000704518903168 0.000704518903168
1 10.810419489 8.1074481629 13.5123555554 41.9574012955 -5.17520313753 -14.4359506515 0.000704518903168 0.000704518903168 0.000704518903168
1 13.5127034352 8.10880521591 10.8088273469 20.352023029 130.530096682 -117.256798469 0.000704518903168 0.000704518903168 0.000704518903168
1 13.5126904636 5.4059898166 13.511374728 19.0548666867 98.9731531057 -112.518690196 0.000704518903168 -0.000704518903168 0.000704518903168
1 10.809035927 10.8100785571 16.2148086124 -96.3987938207 7.86421782458 -19.1472700845 0.000704518903168 0.000704518903168 -0.000704518903168
1 10.8088828 13.5140726009 2.70385798057 -111.7114972 157.268598789 135.789550249 0.000704518903168 0.000704518903168 -0.000704518903168
1 13.5143578134 13.5135239058 0.000339424077906 185.789845393 102.399087821 33.9339011999 0.000704518903168 0.000704518903168 -0.000704518903168
1 13.5130747981 10.8086963577 2.70206509438 57.4883130077 -130.355726468 -43.4990680485 0.000704518903168 0.000704518903168 -0.000704518903168
1 10.8116193766 10.81042525 5.40352064342 161.946161311 42.5335017355 -147.944163325 0.000704518903168 0.000704518903168 -0.000704518903168
1 10.8083074962 13.5133985839 8.10859213534 -169.241867732 89.8668948816 109.222039283 0.000704518903168 0.000704518903168 0.000704518903168
1 13.5141149393 13.5144033902 5.40484020343 161.502438864 190.347529793 -15.9881634706 0.000704518903168 0.000704518903168 -0.000704518903168
1 13.5113083893 10.809439323 8.10793463706 -119.152561195 -56.0591924449 43.4722121213 0.000704518903168 0.000704518903168 0.000704518903168
1 10.8092185133 10.8121400022 10.8087726057 -78.1401649135 214.008725843 -122.730918972 0.000704518903168 0.000704518903168 0.000704518903168
1 10.8095009823 13.5121002688 13.5140242904 -49.8932615015 -39.9646143223 152.437549019 0.000704518903168 0.000704518903168 0.000704518903168
1 13.5125016286 13.5141157984 10.8098849536 0.171366349842 161.588342752 -11.4961347097 0.000704518903168 0.000704518903168 0.000704518903168
1 13.5143450876 10.8111420542 13.5112054003 184.517268653 114.213922982 -129.451459186 0.000704518903168 0.000704518903168 0.000704518903168
108
Atom. timestep:0.997765006386
1 16.0780137507 16.124415281 16.198188973 -98.1737911925 -55.6417938158 -9.3439335916 0.0487209111852 0.0449546542349 0.0075944779315
1 0.0469288446712 2.72619828843 2.83451403945 21.6794458272 8.03184635975 92.5023660478 -0.0332263942487 -0.0189999121165 -0.0459836790437
1 2.75103324764 2.70572274577 16.0452996506 34.7155189717 4.00377371548 -141.874467143 -0.0154532994459 0.000871155637639 0.0319391309566
1 2.77597345939 0.191259909034 2.74788522092 48.2827038297 161.692703141 30.9583397622 -0.0296810510003 -0.0338481347439 -0.0180305274654
1 16.1472769583 0.0499491144692 5.30621122052 -49.8047787241 34.1189403182 -89.2354429915 0.0224446511156 -0.0191215968001 0.0110937719204
1 0.0131878281689 2.65176715024 8.11798809047 12.3493935262 -51.4147808006 13.8235412828 -0.00147839885241 -0.00149655690516 0.00457570497876
1 2.5208042516 2.58758408234 5.42520519833 -147.202509441 -87.6190436524 47.6843589773 0.0405055752044 0.0322494767939 0.0337310448083
1 2.69165831615 16.166555407 8.1209803639 -7.65409675435 -30.9620959764 29.8216022143 0.00551993360408 0.0224311229858 0.0205111127991
1 16.1168419612 16.1833253146 10.7500467658 -74.2928911597 -15.6910145352 -40.9190803916 0.0280248736141 0.0187318995883 0.0220412249229
1 16.0994713255 2.88665106146 13.6584195345 -100.690639733 148.273053416 118.032899393 0.017764306752 -0.0412138943328 -0.0339500739177
1 2.66517891328 2.81998172863 10.8766281023 -32.4281288728 91.6755563473 63.8087335299 0.0063161777412 -0.029668926422 -0.00234087017046
1 2.63398920497 16.2049738851 13.5056452125 -60.6278558974 -6.48226897675 -10.224861614 0.00798606155566 0.00373307545687 -0.00390315433043
1 16.1610231066 5.35334365082 0.0335089900953 -51.0711720073 -36.1384187516 42.0263253628 0.00252110077597 0.0189952402039 0.0125473041481
1 16.1667474276 8.10354389874 2.60795747835 -35.9726654058 -24.7234645089 -66.1850690352 0.013818544533 -0.0268872244256 0.0339230549423
1 2.79269812248 8.19483053746 0.0552116950248 71.7652501748 60.7007276654 47.3739659583 -0.0215263564722 -0.0306976975787 -0.00945496886425
1 2.52695738201 5.27140604962 2.74777088744 -149.123333304 -103.591929648 39.9510185919 0.0306023133432 0.0358889233263 -0.00523458873746
1 16.1190059323 5.39667455332 5.45004898354 -75.8873719612 2.65870754839 61.7935337642 0.0238551651969 0.0118071837098 0.0206683944018
1 0.084137101643 8.28547378962 8.16439305634 72.5333850906 156.398188635 41.6928689013 -0.0124107030675 -0.0228949890311 -0.0172743075561
1 2.73914238914 8.17433315805 5.51358441549 26.9247325706 52.2904007611 102.412470938 -0.0111144348923 -0.0162514227233 -0.00495721801391
1 2.75397548562 5.41002762136 8.23502804868 39.39811622 5.40074037293 109.056109772 -0.0146960960296 0.00148844263485 -0.0209960298139
1 0.00896113373488 5.35931460271 10.8865108895 9.69369189232 -28.3930211524 64.3361661246 0.000714659938166 0.0198751768063 -0.0136483964875
1 16.1182335724 8.03732379836 13.6242735702 -84.4336989152 -61.4190477762 106.311014355 0.0144544946711 0.010993360823 -0.00522831895665
1 2.6302784508 8.29589863452 10.8919916545 -63.1891603472 151.301545716 77.4918839868 0.0112221228524 -0.0439895927502 -0.00705843637474
1 2.75034106488 5.37791800866 13.5597361536 36.0905643585 -1.98699497154 39.5863686775 -0.0144747891515 0.02960977087 -0.00899102966767
1 16.1924619469 10.7125925164 0.169327503549 -14.5943999848 -80.7626753061 133.016241953 0.0100541595709 0.0203050079239 -0.0443502709634
1 0.0365100398402 13.4092657675 2.68624910468 47.4598010871 -79.183742939 -13.9525791442 0.0125697459142 0.0284572530498 0.00120270566164
1 2.7099220094 13.523612973 0.0333666763565 13.9614116988 7.53726501185 28.1907581866 0.00639114313442 -0.00385936992674 -0.00628946732858
1 2.71676021692 10.6451393327 2.7378088609 24.7993212531 -137.066954567 35.7140907038 0.0109868914326 0.031360035559 0.00215905655957
1 16.2043904276 10.9170589333 5.29057466221 -12.946363657 86.3117132652 -87.0315410364 -0.00242673679899 -0.0247740196731 0.0316513921784
1 0.11084468867 13.6648209732 8.1274577407 84.5242423957 122.550328979 20.8889728901 -0.0323792060746 -0.0347616466891 0.00250448778436
1 2.65079955565 13.5421182961 5.58220328767 -41.8923302249 26.1530452787 144.59760343 0.012851121361 -0.0046871012665 -0.0382126862203
1 2.75531537626 10.9039921042 8.21158498247 54.2481593522 91.0844291904 90.4790063514 0.00253765510681 -0.00298432127437 -0.0150568734493
1 0.0714202841404 10.87105399 10.7843986426 49.7048030036 68.060614051 -26.0820027639 -0.0261177024467 0.0096844041288 -0.00125038846352
1 0.0176319276062 13.4762746327 13.5315286747 23.4463778639 -29.1214393236 19.7148316429 0.00807505668048 0.0101402882499 0.00109249692087
1 2.66925810282 13.4448903583 10.929447202 -15.3322195503 -53.7089991644 112.387472514 0.0208099068615 0.0163531193081 -0.00700292110626
1 2.56988437951 10.6816203998 13.5613410067 -119.719509856 -101.735595996 59.5094424802 0.0128353375586 0.0317630617402 0.0149914375721
1 5.46295714486 0.223273470481 0.109761354136 49.7094467496 189.060136272 99.8589965875 -0.0111933206677 -0.0393333906239 -0.00971046736356
1 5.27213238013 2.7741634423 2.79695654805 -114.101968741 79.2820157093 91.0375096668 0.0224454622303 0.0110934990009 -0.00255238013515
1 8.12794039945 2.60825531942 0.068153950438 -5.11458589626 -62.3459511294 42.0403232752 -0.0338024545513 0.0391716250887 -0.0357711646116
1 8.18477123683 0.0908001881685 2.90213367551 15.8171573685 52.8499290919 164.024596543 -0.0806006329065 -0.0510193470927 -0.0420930260176
1 5.32953948398 0.00797951583066 5.54392257565 -84.9451765034 13.2054608229 108.21595675 -0.013523160655 0.0057950466654 -0.0378536391287
1 5.51266431799 2.52166115271 8.17529884902 74.1777246531 -137.413033358 48.6049423743 -0.0399185837089 0.0526418528172 -0.0236563400111
1 8.03621350487 2.63475997714 5.39310780178 -63.0623177911 -43.2875921574 6.06727385512 0.00820761481035 0.0298338091042 0.0226536777094
1 7.9548679365 16.0856515045 7.96826704343 -103.676047956 -103.816326734 -119.391165591 0.0593983849298 0.0296336791097 0.0225822763008
1 5.45365551566 0.0342201159386 10.7353554241 36.413745643 16.8714583718 -45.6353654995 -0.0136262170072 -0.0222070305878 0.0351377772205
1 5.41923393834 2.82576611591 13.4982639336 22.3527385182 108.132244061 -21.6020639266 0.0106196279589 -0.0170506023644 -0.00907904092151
1 7.98985529815 2.7476625284 10.7566879963 -84.9414353375 39.715171119 -44.1664317293 0.0377074764953 -0.00397501374884 0.0127015754959
1 8.09696829844 0.072584866108 13.619187406 -8.27857808034 60.8373702331 87.007320877 0.00176958592543 -0.0131651970531 -0.0217792393386
1 5.45421640425 5.47714442514 16.1150039728 48.7512102156 57.6623787198 -80.64271455 0.000632670675316 -0.016395918137 0.021859400105
1 5.42464559367 8.06035411834 2.59055048614 1.77874569769 -47.0505759754 -74.8343137812 -0.0235348856601 -0.000416704697754 0.0469373126244
1 8.04508820356 8.22021240211 0.267928644845 -39.9787385964 70.6108518236 200.956471415 0.0278034816202 -0.0528451708421 -0.0830432063891
1 8.02855233818 5.35525046823 2.75457453395 -69.135923926 -51.733301797 44.5524125196 0.0103701814079 -0.00251019722863 -0.00831078203588
1 5.36289395763 5.47004470549 5.44599685036 -63.0184305264 44.4586838684 41.6918459406 -0.0258629214505 -0.0238501771809 0.000697345458964
1 5.42537499871 8.09780468872 8.30027148722 3.0751497049 6.05296937973 157.505228181 -0.0217095683866 0.0199394188457 -0.0442235778494
1 8.01130004561 7.88890006872 5.49448285963 -76.4951463635 -172.098828033 65.8372917852 0.0228312566717 0.0557302914942 -0.0297059270605
1 8.03027071003 5.4639430073 8.04970797106 -58.8504228915 27.0315821701 -42.4552970512 0.0198502742106 -0.0402289034114 0.021761919235
1 5.40873030444 5.49674695791 10.7469182287 -9.25666901231 69.3879188786 -39.2037920668 -0.0157534131921 -0.0301519615238 0.0304032891958
1 5.33042667259 8.13196544281 13.5704767585 -72.7223586166 6.07319353893 39.2952163038 -0.000147769445746 -0.0230470875586 -0.0238664386706
1 7.99147929516 7.98622207009 10.8153555116 -79.1304500046 -104.245140865 11.1152192933 0.0444991573083 0.0204133261912 0.00745382569367
1 8.13989022679 5.47524869124 13.4732541191 24.8139662811 61.6209830048 -28.83179798 -0.00959427264032 -0.0101769708745 0.0109812132674
1 5.55287205105 10.7307882252 16.0652214095 95.8713176954 -59.6338545306 -114.576328473 -0.0648255669244 0.0212293479784 0.0419510963141
1 5.22576959022 13.6837252344 2.79914876364 -166.675525399 149.600871618 86.739429843 0.0125047138279 -0.022797476519 -0.0103095926332
1 7.94361719324 13.3655558262 0.051306933147 -144.704574863 -110.29589774 54.385046829 0.0225231231627 0.0432352807431 0.00354227240693
1 8.17365492887 10.7878747678 2.64576550014 49.6128717224 -4.40060926497 -15.0972477963 -0.0174099941997 0.0239587571772 0.0516377098546
1 5.36697212762 10.7525741529 5.45761341236 -25.0911636688 -53.3775402858 50.6731984035 0.0143623644076 0.00471660126879 -0.0016494460612
1 5.48350756327 13.5586975474 8.10442546192 56.2339139022 16.6381355351 7.89774309853 -0.0287667941975 -0.0369208710694 0.0132051238298
1 7.92287493178 13.5254897919 5.32430247204 -164.668317325 -6.03259991439 -73.0529532503 0.0214248464807 -0.0216051713122 0.00716226740609
1 8.24923853954 10.7071545344 8.2274063654 116.431264939 -102.167406693 80.6735752988 -0.0315003068353 -0.00156317863327 -0.0460726101479
1 5.46153706281 10.7791933286 10.7930267951 44.0994041791 -19.2042460693 -15.4064612679 -0.0146224964503 0.0139746169916 0.000787741878514
1 5.52653514613 13.4535806468 13.4642123509 100.256660169 -43.5392787973 -48.5139043247 -0.0226629397751 0.017177624088 -0.00168048625026
1 8.16855280659 13.477078947 10.7167582819 32.6649082434 -16.7693488298 -60.2626008048 -0.0379167777635 0.0230638633938 0.0397576222741
1 7.91835758939 10.6432866284 13.4436525833 -136.113947496 -155.029167108 -73.8299628922 0.0654179914533 0.0128755058963 -0.00770215168767
1 10.7988812111 0.092265680199 0.0322747200309 -8.12558035382 54.3255337283 15.8565343285 0.0048562842613 -0.0458558679018 -0.0221040370158
1 10.5425691854 2.55768649257 2.54123644501 -194.184241705 -90.2337692601 -117.355431506 0.0940335423614 0.0716348036708 0.0577061329267
1 13.4792554739 2.71584552288 16.1358259524 -34.3733739475 14.67764607 -54.435944088 -0.00307682227145 0.000814764718154 0.0291411074508
1 13.4575298199 16.1910167317 2.65156140969 -49.3837460707 -10.0767761406 -49.0109429616 0.00544582004871 0.0161624706919 0.00211467586914
1 10.7705413415 16.198636114 5.33092665746 -25.7390285315 -5.55294099823 -36.3349867088 0.0185406645312 0.0145934555827 0.0473894302676
1 10.9575777553 2.82600500271 8.07227514544 115.422666179 97.8010100358 -33.0900398714 -0.0361459744693 -0.0288140269962 0.00218452343031
1 13.529618268 2.56817087023 5.38059085616 6.75016071121 -125.821636867 -23.2998732947 -0.0119499074248 0.0103268880452 0.00241565526779
1 13.5116188457 16.1392325056 8.06192798828 -6.06103563208 -58.1659168964 -46.4977808327 -0.00604941211749 0.0212322183898 -0.000134902408354
1 10.9204390197 16.0976328984 10.7606082475 78.4239726749 -84.3643370055 -36.801620429 -0.0369929784692 0.0403444896552 0.016718713018
1 10.9143472685 2.63933341307 13.4866569492 85.8005592936 -63.0150890756 -33.4239661069 -0.0208284951986 -0.000894530187453 -0.00916663057735
1 13.5247689533 2.63038660034 10.8144421892 16.2496849949 -70.2932121293 7.0980271096 0.0046489435247 0.00214392208239 0.00314418997636
1 13.5157935459 16.1775133085 13.4882585583 2.81424294173 -34.9741425926 -17.1379053743 -0.000218448821867 0.00264118024066 0.00904532930733
1 10.7571306014 5.30136741698 16.0559563526 -47.6571990543 -89.4043077855 -136.448694678 0.00570587489037 0.0156756269816 0.0243300109716
1 10.7738934874 8.09933963166 2.55221974176 -31.506380414 -23.0820978859 -118.001357282 0.00685689278496 -0.0173757320616 0.0399678444966
1 13.4227287105 8.14145883873 0.111768657549 -84.5964372581 15.7786347063 83.0685935639 0.0070867217977 -0.0221763118752 -0.0354505499935
1 13.596970881 5.31978595233 2.88561240827 69.1462025052 -85.4173868955 138.402154197 -0.0142355814117 0.000133850609947 -0.0533854342087
1 10.9621958019 5.37027001067 5.31270450955 121.523348666 -45.7587794501 -85.3566170778 -0.0372763784924 -0.0130933363824 0.00951441909091
1 10.8502709219 8.00503903061 8.0400347517 33.5653200271 -103.090122398 -56.2759069267 -0.00733032471685 -0.00225035602131 0.012015381538
1 13.4051923398 8.06854248562 5.35220878321 -81.9389123475 -29.7250926979 -43.3774271717 0.0288052776482 0.0115497016478 0.00946964703211
1 13.597614114 5.26228152555 8.18302649879 87.1029816535 -113.641135518 70.6151718879 0.00339684329743 0.0340115226901 -0.0046400469874
1 10.8259217426 5.31619864461 10.9024938249 12.5284344169 -76.449712667 73.7823323969 -0.00402273186946 0.0132770371844 -0.0214353755171
1 10.8496756161 8.11087544265 13.4968072699 34.4894050854 18.7649812221 -18.0334485264 -0.00523286830714 0.0168601731054 -0.00307937255596
1 13.531002018 8.23181284597 10.6986752546 14.8968698618 106.524216104 -94.3535128375 -0.0034415742449 -0.0212547201243 0.0207921579233
1 13.5264276808 5.5025982695 13.4047339746 2.10439991572 91.0564426372 -94.4330968733 -0.0155009756974 -0.00792672934477 0.0149940029594
1 10.7221196955 10.822551256 16.1931505642 -69.4153879061 18.9531896252 -25.5007198472 0.0195651138562 0.00501768701097 -0.00331303170273
1 10.7053350602 13.6588438733 2.82546459391 -88.5656629369 118.634970101 92.8025875277 0.0167891544559 -0.0329562453423 -0.035467449021
1 13.679911562 13.6004528988 0.0338670644935 123.147206362 52.0560765844 31.4403832787 -0.053993149503 -0.0468202642755 -0.00364270822518
1 13.560875896 10.6938312507 2.66202419599 29.0076293916 -84.9782464783 -31.9694472567 -0.0221831758988 0.0353909515288 0.0110748010929
1 10.9620916217 10.8543805372 5.2638048275 129.249930984 46.6825357982 -123.676780676 -0.0240959122531 0.00331710646034 0.0189190473803
1 10.6520766214 13.599711451 8.19342092475 -128.605973857 79.0238181668 34.128826514 0.0351683099214 -0.00912284623841 -0.0636869369183
1 13.6638362854 13.6897866358 5.38992005334 125.626664895 144.166640302 -14.469722603 -0.0300074283697 -0.0396360747139 -0.00137404813408