108
Atom. timestep:0
1 16.2149287056 0.000357984699774 0.000660376389094 -7.13794619678 35.7899633748 66.0291321133 -0.000704518903168 -0.000704518903168 -0.000704518903168
1 16.2148638529 2.70080895488 2.70241717182 -13.623211441 -169.113017679 -8.29132410969 -0.000704518903168 -0.000704518903168 -0.000704518903168
1 2.70201413657 2.70292422539 4.41679068834e-05 -48.5948489313 42.4140328504 4.40828428654 -0.000704518903168 -0.000704518903168 -0.000704518903168
1 2.70239206499 16.2147688146 2.70358025113 -10.8020070857 -23.1270473174 108.016605845 -0.000704518903168 -0.000704518903168 -0.000704518903168
1 16.2144835033 0.000212042555721 5.40557248756 -51.6581762887 21.1957490628 57.2402489002 -0.000704518903168 -0.000704518903168 -0.000704518903168
1 0.000539495434315 2.7028792458 8.10769627341 53.9410367127 37.9160735179 19.6358467911 -0.000704518903168 -0.000704518903168 0.000704518903168
1 2.70299037536 2.70192991586 5.40559297605 49.0290297842 -57.0169198537 59.2890985472 -0.000704518903168 -0.000704518903168 -0.000704518903168
1 2.70278809942 0.000866378238544 8.10707112719 28.8014359367 86.6293169264 -42.8787742347 -0.000704518903168 -0.000704518903168 0.000704518903168
1 16.2143201518 16.214366166 10.8088322755 -67.993329516 -63.3919091145 -116.763942066 -0.000704518903168 -0.000704518903168 0.000704518903168
1 16.214793909 2.70238249564 13.5131557865 -20.6176077885 -11.7589427811 65.587156923 -0.000704518903168 -0.000704518903168 0.000704518903168
1 2.70213817254 2.70198489574 10.8107947921 -36.1912517019 -51.5189323356 79.4877156558 -0.000704518903168 -0.000704518903168 0.000704518903168
1 2.70339081212 16.214626151 13.5117914738 89.072705184 -37.393405491 -70.8441123146 -0.000704518903168 -0.000704518903168 0.000704518903168
1 0.000426082707388 5.40484291634 0.000167635287156 42.5997640926 -15.7168721855 16.7550222348 -0.000704518903168 -0.000704518903168 -0.000704518903168
1 16.2146788556 8.10943992473 2.70254912268 -32.122948552 194.000978502 4.90376164146 -0.000704518903168 0.000704518903168 -0.000704518903168
1 2.70272129196 8.10681236908 0.000158400397302 22.1206895715 -68.7545850142 15.8315332553 -0.000704518903168 0.000704518903168 -0.000704518903168
1 2.7017153946 5.40438710878 2.70157771947 -78.4690456535 -61.2976279424 -92.2365590922 -0.000704518903168 -0.000704518903168 -0.000704518903168
1 0.000672812137142 5.4060480079 5.40565736838 67.2727069101 104.792282675 65.7283311815 -0.000704518903168 -0.000704518903168 -0.000704518903168
1 0.00106654712932 8.10641693828 8.10626682559 106.646205876 -108.297664725 -123.308933516 -0.000704518903168 0.000704518903168 0.000704518903168
1 2.70132434368 8.10892417906 5.40439208763 -117.574137745 142.426411809 -60.7997433448 -0.000704518903168 0.000704518903168 -0.000704518903168
1 2.70230207712 5.40406250622 8.10804981131 -19.800794319 -93.7578835624 54.9896367419 -0.000704518903168 -0.000704518903168 0.000704518903168
1 16.2146394376 5.40511033599 10.8108219311 -36.0647424583 11.0250922525 82.2016175416 -0.000704518903168 -0.000704518903168 0.000704518903168
1 16.2129380245 8.1069323624 13.5125419345 -206.206056123 -56.7552528769 4.20195692332 -0.000704518903168 0.000704518903168 0.000704518903168
1 2.70148710108 8.10829233763 10.8105958137 -101.298397904 79.2422684247 59.589880774 -0.000704518903168 0.000704518903168 0.000704518903168
1 2.70243330674 5.4055998543 13.5136392189 -6.67783258982 59.9769233893 113.930396015 -0.000704518903168 -0.000704518903168 0.000704518903168
1 16.2140237605 10.8101119428 16.2143631447 -97.6324540509 11.2027859806 -63.6940392531 -0.000704518903168 0.000704518903168 -0.000704518903168
1 0.000627237481681 13.5107845353 2.70163217197 62.7152413932 -171.537957626 -86.7913085924 -0.000704518903168 0.000704518903168 -0.000704518903168
1 2.70140375186 13.5129031641 16.2148567932 -109.633319905 40.3249187554 -14.3291880468 -0.000704518903168 0.000704518903168 -0.000704518903168
1 2.70306420968 10.8088098699 2.70226137429 56.412461131 -119.004501767 -23.8710773229 -0.000704518903168 0.000704518903168 -0.000704518903168
1 6.56743779367e-05 10.8105813127 5.4062849241 6.5589313781 58.1397729609 128.483902929 -0.000704518903168 0.000704518903168 -0.000704518903168
1 16.214709869 13.5130162442 8.10677107293 -29.0216033418 51.6329217151 -72.8842002317 -0.000704518903168 0.000704518903168 0.000704518903168
1 2.70218922938 13.5127624915 5.40520274886 -31.0855679211 26.2576566556 20.2663790468 -0.000704518903168 0.000704518903168 -0.000704518903168
1 2.70313796165 10.8107090692 8.10793996656 63.7876586464 70.9154265217 44.0051624453 -0.000704518903168 0.000704518903168 0.000704518903168
1 0.000328135041278 10.8096712713 10.810801688 32.8049975442 -32.86436206 80.1773096689 -0.000704518903168 0.000704518903168 0.000704518903168
1 16.2147573064 13.5142821717 13.511165374 -24.2778632507 178.225677709 -133.45409159 -0.000704518903168 0.000704518903168 0.000704518903168
1 2.70265868792 13.5130952007 10.8095267283 15.860285216 59.5285729394 -47.3186659512 -0.000704518903168 0.000704518903168 0.000704518903168
1 2.7016211578 10.8104792804 13.5123940576 -87.8927254547 47.9365505418 -10.5857337427 -0.000704518903168 0.000704518903168 0.000704518903168
1 5.40372459676 16.2132826209 0.000524893609872 -127.548829163 -171.746414157 52.4808542777 -0.000704518903168 -0.000704518903168 -0.000704518903168
1 5.40437139314 2.7016128148 2.70110489479 -62.8691920786 -88.7270262746 -139.519026263 -0.000704518903168 -0.000704518903168 -0.000704518903168
1 8.10652494606 2.70313282749 16.2142412417 -97.4968868892 63.2742418497 -75.8843333574 0.000704518903168 -0.000704518903168 -0.000704518903168
1 8.10788814433 0.000217701576524 2.70296407347 38.8229389759 21.7616511395 46.398840209 0.000704518903168 -0.000704518903168 -0.000704518903168
1 5.40490647788 16.2143428772 5.40479187501 -9.36071799702 -65.7207816419 -20.8210054147 -0.000704518903168 -0.000704518903168 -0.000704518903168
1 5.40531358755 2.70260598209 8.10844646018 31.3502480305 10.5897024024 94.6545238445 -0.000704518903168 -0.000704518903168 0.000704518903168
1 8.10847194156 2.70280522037 5.40539300967 97.2026620377 30.5135307587 39.2924604341 0.000704518903168 -0.000704518903168 -0.000704518903168
1 8.10806974985 16.214598462 8.10825157219 56.9834912166 -40.1623105968 75.1657250872 0.000704518903168 -0.000704518903168 0.000704518903168
1 5.40506457093 0.000959936586777 10.8101935324 6.44858680283 95.9851516898 19.361744797 -0.000704518903168 -0.000704518903168 0.000704518903168
1 5.40462040878 2.7018639837 13.5140912742 -37.9676278067 -63.6101355648 159.135927797 -0.000704518903168 -0.000704518903168 0.000704518903168
1 8.10872416758 2.70259683062 10.8100451785 122.425263393 9.67455592653 4.526355117 0.000704518903168 -0.000704518903168 0.000704518903168
1 8.10663897014 0.000266521304086 13.5139235765 -86.0944791318 26.6436238644 142.366158762 0.000704518903168 -0.000704518903168 0.000704518903168
1 5.40512253458 5.40431337443 16.2127664254 12.2449515782 -68.6710633165 -223.365964616 -0.000704518903168 -0.000704518903168 -0.000704518903168
1 5.40404765166 8.10897966284 2.7011726316 -95.243339385 147.974789903 -132.745345057 -0.000704518903168 0.000704518903168 -0.000704518903168
1 8.10812841377 8.10798710471 16.2149419571 62.8498831549 48.7189772353 -5.81279704623 0.000704518903168 0.000704518903168 -0.000704518903168
1 8.10786382554 5.40573611785 2.7022723444 36.391060453 73.6032782078 -22.7740657824 0.000704518903168 -0.000704518903168 -0.000704518903168
1 5.40642512631 5.40597947449 5.40515490729 142.504124115 97.938942448 15.4822228047 -0.000704518903168 -0.000704518903168 -0.000704518903168
1 5.40445020736 8.10789128252 8.10819294168 -54.987770155 39.1367583991 69.3026742664 -0.000704518903168 0.000704518903168 0.000704518903168
1 8.10811624837 8.10781455642 5.40541927857 61.6333431028 31.4641484546 41.9193502247 0.000704518903168 0.000704518903168 -0.000704518903168
1 8.10844365889 5.40479172502 8.10827205925 94.3743950347 -20.8360045418 77.2144308833 0.000704518903168 -0.000704518903168 0.000704518903168
1 5.40474802143 5.40493905946 10.80944526 -25.2063633598 -6.10256035532 -55.4654916705 -0.000704518903168 -0.000704518903168 0.000704518903168
1 5.40558730013 8.1080836743 13.5116713459 58.7215066446 58.3759359917 -82.856900285 -0.000704518903168 0.000704518903168 0.000704518903168
1 8.10796560313 8.10820716572 10.8100127613 46.5688191573 70.7250776982 1.28464125548 0.000704518903168 0.000704518903168 0.000704518903168
1 8.10691926334 5.40487020486 13.511470248 -58.0651589248 -12.9880201077 -102.966688508 0.000704518903168 -0.000704518903168 0.000704518903168
1 5.40564671643 10.8104079289 16.2131945249 64.6631358596 40.8013921182 -180.556010456 -0.000704518903168 0.000704518903168 -0.000704518903168
1 5.40658223341 13.5116526902 2.70180959544 158.214833614 -84.7224698933 -69.0489622194 -0.000704518903168 0.000704518903168 -0.000704518903168
1 8.1063097915 13.5125342704 16.2139196165 -119.012342831 3.43554553115 -108.046859291 0.000704518903168 0.000704518903168 -0.000704518903168
1 8.10826606175 10.8104852991 2.70222526573 76.6146804514 48.5384111711 -27.481933021 0.000704518903168 0.000704518903168 -0.000704518903168
1 5.40578399649 10.810117246 5.40461357567 78.391141876 11.7331079918 -38.6509392528 -0.000704518903168 0.000704518903168 -0.000704518903168
1 5.40561771721 13.5121697977 8.10804403156 61.7632141872 -33.0117197436 54.4116620044 -0.000704518903168 0.000704518903168 0.000704518903168
1 8.10837750533 13.5135318696 5.40464796239 87.759038336 103.195470231 -35.2122669407 0.000704518903168 0.000704518903168 -0.000704518903168
1 8.10730108231 10.8097331046 8.10942178145 -19.8832627519 -26.6810368621 192.186649871 0.000704518903168 0.000704518903168 0.000704518903168
1 5.40551622892 10.8109840882 10.8111381077 51.6143857075 98.4173280515 113.819272134 -0.000704518903168 0.000704518903168 0.000704518903168
1 5.40474395759 13.5134340785 13.5122049372 -25.6127469274 93.416351406 -29.4977782594 -0.000704518903168 0.000704518903168 0.000704518903168
1 8.10806784093 13.5130720524 10.8101725984 56.7925988638 57.2137422846 17.2683487543 0.000704518903168 0.000704518903168 0.000704518903168
1 8.10745730382 10.8086600681 13.5129238731 -4.26111198139 -133.984685624 42.3958151527 0.000704518903168 0.000704518903168 0.000704518903168
1 10.8093573032 16.2141920243 0.000484319972178 -64.2611753366 -80.8060718376 48.4234905343 0.000704518903168 -0.000704518903168 -0.000704518903168
1 10.8099175123 2.70425471447 2.70317921819 -8.24026387614 175.462939727 67.9133126164 0.000704518903168 -0.000704518903168 -0.000704518903168
1 13.5123754705 2.70331168746 0.0007748542119 -12.4444445034 81.1602390109 77.4769143206 0.000704518903168 -0.000704518903168 -0.000704518903168
1 13.5118212209 16.2146407314 2.70247603369 -67.8694035665 -35.935364796 -2.40513731579 0.000704518903168 -0.000704518903168 -0.000704518903168
1 10.808102556 16.2146091485 5.40603753132 -189.735895186 -39.0936514487 103.744625454 0.000704518903168 -0.000704518903168 -0.000704518903168
1 10.8106508077 2.70270058934 8.10724710143 65.0892740173 20.050427572 -25.2813506763 0.000704518903168 -0.000704518903168 0.000704518903168
1 13.513111058 2.70292598902 5.40399736776 61.1143104343 42.5903952341 -100.271729828 0.000704518903168 -0.000704518903168 -0.000704518903168
1 13.5119602009 0.000165497183713 8.10678377368 -53.9714052013 16.5412118918 -71.6141254384 0.000704518903168 -0.000704518903168 0.000704518903168
1 10.8089440629 16.2143243664 10.8093381256 -105.585207535 -67.5718665963 -66.1789335673 0.000704518903168 -0.000704518903168 0.000704518903168
1 10.8117997445 2.70258643079 13.5131823571 179.982952138 8.63457222381 68.2442155443 0.000704518903168 -0.000704518903168 0.000704518903168
1 13.5119191918 2.70341407979 10.810280115 -58.072313708 91.399472014 28.0200107187 0.000704518903168 -0.000704518903168 0.000704518903168
1 13.5130301483 16.2147742239 13.5135329809 53.0233314942 -22.5861192326 103.306592174 0.000704518903168 -0.000704518903168 0.000704518903168
1 10.8096003696 5.40558803122 16.2141644321 -39.95453809 58.7946153461 -83.5652967321 0.000704518903168 -0.000704518903168 -0.000704518903168
1 10.8101428712 8.1079571466 2.70188142935 14.2956310853 45.7231657381 -61.8655707172 0.000704518903168 0.000704518903168 -0.000704518903168
1 13.5121940281 8.10575741098 0.00154955654198 -30.5886852334 -174.250394913 154.947146833 0.000704518903168 0.000704518903168 -0.000704518903168
1 13.5126430353 5.4061183791 2.70185902654 14.3120405764 111.829403125 -64.1058517854 0.000704518903168 -0.000704518903168 -0.000704518903168
1 10.8093699021 5.40296025586 5.4046906959 -63.0012865517 -203.982919118 -30.9389160583 0.000704518903168 -0.000704518903168 -0.000704518903168
1 10.8096524952 8.10831776002 8.1057649544 -34.7419684484 81.7845075654 -173.496052209 0.000704518903168 0.000704518903168 0.000704518903168
1 13.5130360652 8.10784706045 5.40621454409 53.6150249757 34.7145515717 121.445901352 0.000704518903168 0.000704518903168 -0.000704518903168
1 13.5140705437 5.40402046787 8.1073879727 157.062872487 -97.9617190183 -11.1942231985 0.000704518903168 -0.000704518903168 0.000704518903168
1 10.8106228606 5.40520545444 10.810587072 62.2945659619 20.5369371375 58.7157085187 0.000704518903168 -0.000704518903168 0.000704518903168
1 10.8102193709 8.1064493815 13.513251793 21.9455933209 -105.053343003 75.1878086748 0.000704518903168 0.000704518903168 0.000704518903168
1 13.5112967063 8.10854800261 10.8100386794 -120.320859101 104.808766421 3.87644527173 0.000704518903168 0.000704518903168 0.000704518903168
1 13.513055688 5.40568606105 13.5120232987 55.5773109126 68.5975982226 -47.6616279162 0.000704518903168 -0.000704518903168 0.000704518903168
1 10.8110325763 10.8100309562 16.2138341636 103.266138317 3.10412195558 -116.592145982 0.000704518903168 0.000704518903168 -0.000704518903168
1 10.8110824622 13.5115686634 2.70040502987 108.254726238 -93.1251491736 -209.505517951 0.000704518903168 0.000704518903168 -0.000704518903168
1 13.5123260991 13.511389146 0.000582928855743 -17.3815851566 -111.076889744 58.2843788277 0.000704518903168 0.000704518903168 -0.000704518903168
1 13.5123766572 10.8078259504 2.70234882528 -12.3257781818 -217.396448103 -15.1259778401 0.000704518903168 0.000704518903168 -0.000704518903168
1 10.8095076791 10.8110582676 5.40495678736 -49.2235792424 105.835261455 -4.32977029056 0.000704518903168 0.000704518903168 -0.000704518903168
1 10.811334057 13.5116444493 8.10750432901 133.414209683 -85.5465605749 0.441407779345 0.000704518903168 0.000704518903168 0.000704518903168
1 13.5124368182 13.5118897826 5.40422968616 -6.30967291908 -61.0132282491 -77.0398902887 0.000704518903168 0.000704518903168 -0.000704518903168
1 13.5126939268 10.8093043468 8.10699667905 19.4011861281 -69.556815673 -50.3235885153 0.000704518903168 0.000704518903168 0.000704518903168
1 10.8091014734 10.8090812187 10.8096627625 -89.8441576756 -91.8696188646 -33.7152459966 0.000704518903168 0.000704518903168 0.000704518903168
1 10.8109069715 13.5120482823 13.5122655431 90.705651076 -45.1632632342 -23.4371856666 0.000704518903168 0.000704518903168 0.000704518903168
1 13.5116241706 13.5117962396 10.8097846913 -87.5744307999 -70.367533847 -21.5223608272 0.000704518903168 0.000704518903168 0.000704518903168
1 13.5117314333 10.8098384445 13.5126293554 -76.8481669043 -16.1470446267 12.9440434328 0.000704518903168 0.000704518903168 0.000704518903168
108
Atom. timestep:0.997765006386
1 16.2080378154 0.031033482013 0.0638541571896 -6.70725918313 20.0198525344 56.5635578762 -0.000120625365631 -0.013518724749 -0.00877469920203
1 16.2021723308 2.54427578021 2.69785064319 -9.96963339253 -131.816081673 2.57685991464 0.00402397379842 0.0296294861965 0.0083343328247
1 2.65387246284 2.73654811077 0.00293143143622 -47.0346321777 16.4882216769 -0.0831366172528 0.00140291275636 -0.0200670839187 -0.00372614349408
1 2.69072699014 16.1875608658 2.80690188803 -13.5755400223 -34.4432301042 93.357308477 -0.00252731309494 -0.00803366273377 -0.0123487591721
1 16.1636889235 0.0174858064036 5.45786943992 -48.0446285221 10.9047847083 43.2346555921 0.00408703125624 -0.00658560764232 -0.0102724456471
1 0.0498451550489 2.73627709548 8.12754998753 41.302832303 23.7830951648 20.0503473003 -0.00870507732919 -0.0123631992765 -7.20509053703e-05
1 2.75241465144 2.65254254227 5.45862293454 49.6483972597 -34.3961245624 40.7333703851 -8.3340498106e-05 0.0178267169702 -0.0149413591696
1 2.73186497112 0.0809090006493 8.06830580691 29.3670913196 66.57332899 -29.7594274559 0.000110856636026 -0.01658682614 0.011536832683
1 16.1459874598 16.1589514808 10.6948031852 -68.5056482061 -39.3381793771 -109.014168952 6.57300523782e-05 0.0196316457213 0.00536869115696
1 16.194559342 2.68897061906 13.5751744352 -19.8550362112 -16.0129735565 54.8767985196 1.25433664557e-05 -0.00245780905867 -0.00845188295036
1 2.66563925268 2.65452607179 10.8909193143 -36.9353769446 -38.8898321741 79.9980042495 -0.000476446378948 0.0105890106894 -0.00142424023684
1 2.7815529937 16.1813696837 13.4457685625 56.7658970514 -25.324827685 -55.6381565619 -0.0258260273969 0.00918279484849 0.0130993672074
1 0.0375567092302 5.39047872383 0.0180859092321 25.5135804103 -11.7284327154 19.201841682 -0.0148584802624 0.0031918318801 0.000465758081341
1 16.1872080459 8.29002221773 2.70771457496 -15.9800208918 152.21799188 5.8522260238 0.0163634871104 -0.0360617022346 0.000742277419975
1 2.72066311379 8.04545780953 0.00903431082729 9.36074135832 -46.5676504023 -3.6883859225 -0.0105941776744 0.0178286377377 -0.014059539409
1 2.62897342066 5.34732032912 2.61866641109 -61.2096807499 -48.9354792204 -64.0601291405 0.0139494311855 0.00953240337946 0.0228268970617
1 0.0670291695482 5.50032460097 5.45728854862 64.4853889282 71.8221437998 23.4310742621 -0.00228191191516 -0.0285913454583 -0.0344145402693
1 0.103789556227 8.00784178438 7.99995952876 94.6097420968 -77.6927326541 -71.2164007011 -0.00987127641546 0.0266647531451 0.0437294185205
1 2.59722710888 8.24233884278 5.34673599818 -76.8738230168 116.052050871 -51.3499955953 0.0331253785764 -0.0201750103683 0.007597741362
1 2.68738822002 5.31619695874 8.16154978549 -5.51905821689 -76.4408360453 50.6921805906 0.0110508667591 0.0132356724317 -0.00302668250031
1 16.1825390916 5.41639844001 10.889569459 -23.3453491556 11.5034691248 70.587650101 0.0112616029122 -0.0002065309628 -0.0108622361919
1 16.0179100394 8.05667595524 13.5207846084 -171.170695143 -35.3875882992 15.9013284512 0.0307756174162 0.0203202196408 0.00864999551774
1 2.60545855689 8.1816733642 10.8696771031 -84.760424364 61.2413203926 57.3159866417 0.0141474537539 -0.0151190505456 -0.0024268855435
1 2.69346079386 5.46334205742 13.6151383042 -14.3995131907 52.6291061312 75.677438906 -0.00770558616022 -0.00683187001448 -0.0321659638971
1 16.1210334126 10.8168888923 16.1473469566 -83.4591128222 -2.53903970496 -73.1528632159 0.0116729555241 -0.0118890822464 -0.007069398258
1 0.0574078187367 13.3458136652 2.62327864747 45.1824874781 -152.250053319 -61.0639059161 -0.0139346562956 0.0148146757524 0.0213369266372
1 2.5959934669 13.5472551551 16.1999125006 -96.9631166515 22.5568269418 -17.2542208976 0.00983740732405 -0.014175908924 -0.0040495020194
1 2.75610924521 10.7062765954 2.67406616625 44.8491703694 -67.430890735 -36.707670139 -0.0116667913833 0.0450171376958 -0.0105035540886
1 0.00650095628235 10.8684418652 5.52720524327 6.61951813094 56.2010046141 105.300470087 0.000439850105715 -0.00301660069424 -0.0191915478591
1 16.1845478156 13.5613394969 8.04056426618 -31.7137818628 42.0092530774 -52.7898176547 -0.00160090909205 -0.007257355174 0.0162905946549
1 2.67602288579 13.5351360194 5.42350059432 -17.3040235311 14.8597599263 14.9151001333 0.00988218765813 -0.00888827348936 -0.00321984784725
1 2.76442440881 10.8799001463 8.15192478956 55.9520772344 64.9359752576 43.2010172728 -0.00668264716916 -0.00561284080169 -0.00142374781729
1 0.0261316165801 10.7810953395 10.8832049071 11.4657840648 -19.2018760433 57.3328891645 -0.018005922788 0.0120707315385 -0.0175561679346
1 16.1901299704 13.6818923126 13.3852791362 -23.6451905815 145.394112558 -110.523327499 0.00289608525459 -0.0279132883482 0.0185320114248
1 2.71748784612 13.5719125842 10.7612971537 12.7697434171 57.2275010108 -49.6808739277 -0.002583271277 -0.00194202790203 -0.00136355302559
1 2.61607073417 10.8579822841 13.5053411799 -79.8508949162 46.689535673 -0.00811501970243 0.00778420438337 -0.000589099789322 0.00842484298136
1 5.27921481124 16.0516471278 0.0536465093655 -117.865192085 -140.762302932 54.1131433969 0.00842729966129 0.0257370011643 0.000630387080541
1 5.34627169389 2.61962371365 2.56980965429 -49.1154109331 -69.5579636486 -115.634893875 0.0101492857771 0.0139377926247 0.018011190819
1 8.01928070279 2.76207386008 16.1455523848 -65.3818965651 50.6534156361 -53.3933200508 0.0276920084329 -0.00927708184293 0.019225196362
1 8.14557897465 0.0225591688431 2.7425415142 34.4781246169 24.2928445612 26.0402606814 -0.00468001125238 0.00270284311531 -0.0159857287129
1 5.40127003931 16.151664525 5.38667966782 7.08080776128 -56.7211256362 -13.1558330122 0.0123065862911 0.00677791942255 0.00552849165598
1 5.43959955303 2.71238496428 8.19660038605 39.6598810075 8.6365371429 74.8750827576 0.00607410511065 -0.00102947994324 -0.0160815855373
1 8.19035516358 2.72850951696 5.44363952966 50.5975566544 15.3447148155 36.9676288531 -0.0384061164144 -0.0134004822656 -0.000961629712017
1 8.15819308891 16.176929645 8.17960881651 34.8011207898 -31.9902550238 63.0321128198 -0.0199738018225 0.00721150376074 -0.0105352364096
1 5.41579830673 0.0934133288819 10.8281258192 18.926376931 84.7279013936 15.0751853998 0.00972174735058 -0.00978168520242 -0.00327226323026
1 5.36506736637 2.63843914192 13.6588795633 -43.5367768918 -64.7032191337 115.215091233 -0.00581199187769 -0.00349055098629 -0.0366080108884
1 8.22713961346 2.7109397082 10.8195984961 110.295702236 5.48236775752 18.0171648388 -0.00957559285113 -0.00360235415083 0.00882403342074
1 8.02743463297 0.0273609123052 13.6473454764 -65.9113028907 28.4030631665 114.959212158 0.0153386009392 0.00173441057068 -0.0227283608649
1 5.4185382078 5.34706121237 16.0065799244 15.3917553325 -33.2210343632 -171.022172047 0.00209232101828 0.0305091728927 0.0434859243212
1 5.32041002818 8.24458622611 2.57301814062 -57.8793756533 110.285722076 -118.169800911 0.0340192243935 -0.0313491838982 0.0125684955512
1 8.16568464208 8.15329402601 16.2092966745 46.4926167907 38.0910362076 -4.40636971535 -0.0135887376611 -0.00876211562967 0.00216748243508
1 8.13642157152 5.47889966423 2.67637883843 14.3857068068 71.975586221 -31.0887185721 -0.015655690628 -0.00163502607169 -0.00537878727033
1 5.53910357806 5.50067436402 5.41822777392 114.580865053 88.0391552526 9.71392704109 -0.0203742163074 -0.00795845963498 -0.00269436128859
1 5.35007271507 8.1462472167 8.1758936477 -52.7222317096 36.7248665906 64.0988200841 0.00229549154615 -0.00191301421534 -0.00432668705298
1 8.16560668746 8.14052094217 5.44227671358 48.7890095443 34.5544577477 26.3554017277 -0.0112370211788 0.00205316526987 -0.0134362869411
1 8.19958847312 5.38815981384 8.18465768786 84.4849173561 -8.8278708874 73.8430807698 -0.00809316814697 0.00889990813708 -0.00369085601258
1 5.37894663396 5.39863337413 10.7614056772 -26.6385224724 -5.86683742309 -34.098494597 -0.000689219997894 0.00113713723551 0.0162063180791
1 5.45814232635 8.16153865013 13.4306879962 39.3658944788 42.3600725654 -76.52241442 -0.0165197561678 -0.0145344995985 0.00574092138079
1 8.15258238824 8.1683589029 10.811801025 39.4324011584 37.3935655643 2.65641924673 -0.00757649093286 -0.029278848674 0.001381207124
1 8.05323036677 5.39240966047 13.4093554211 -44.6545992162 -11.0135635139 -99.6983909519 0.0110996123066 0.00205639826055 0.00337464378178
1 5.46199406913 10.8501000935 16.0395997487 38.4965690888 36.8726922973 -158.601817679 -0.0226494572382 -0.00409012043737 0.0190320921112
1 5.55296012665 13.4281976151 2.63728628532 123.259885545 -80.2775521719 -54.3349666414 -0.0272625121495 0.00422405021333 0.0131772216672
1 7.99974114078 13.5129343346 16.1085496304 -80.9427291288 -5.42554807409 -99.4519598107 0.0315946982416 -0.00687416083882 0.00744082528963
1 8.18459847709 10.8556387097 2.67142822096 75.2008885527 37.8986799428 -36.7424370668 -0.00160055637915 -0.00932945244032 -0.0068666889125
1 5.48397841624 10.8232479291 5.37009198902 76.8215611233 15.3194263327 -26.5060166707 -0.00229016775821 0.00212000368361 0.00926653769002
1 5.46711846112 13.4835687902 8.15940661753 60.3648763027 -19.7191998104 44.8040911513 -0.0015823090466 0.0107013936637 -0.00801420097035
1 8.19089319971 13.6058888405 5.37291889238 68.9632685039 68.9731199627 -25.0732829668 -0.0196688095653 -0.0303773213369 0.00756535942503
1 8.08617485952 10.7886106658 8.2866086734 -24.2002935399 -9.9254285998 146.511844142 -0.00447322539322 0.0134593488356 -0.0379172219285
1 5.45255166994 10.906799315 10.9226991204 37.601892807 90.1908106141 106.067920346 -0.0114607254075 -0.00693900826226 -0.00737694838334
1 5.37949180744 13.6007063451 13.4801450237 -24.5391384061 74.7039957234 -37.046901012 0.000987140718025 -0.0150606998778 -0.00609205620412
1 8.16246401283 13.5663315037 10.8333392458 48.1135519424 44.070645115 33.9534939797 -0.00888860874079 -0.0123926943356 0.0124003031916
1 8.11117202982 10.6864771822 13.5503847766 20.4977434143 -98.491748687 26.6423195681 0.0215369153156 0.0285631162546 -0.0139412168471
1 10.7477517335 16.1411730658 0.0457647285853 -56.0372668735 -58.0968164972 37.8439160207 0.00690461626973 0.0174517087387 -0.0100918886465
1 10.8020796579 2.8653608669 2.75936993173 -6.85979565451 130.740797515 30.0035003342 0.0014227871581 -0.0386097170007 -0.0347044746772
1 13.4998877144 2.78198863379 0.0778513737478 -12.0341102836 73.2260074951 75.8783025959 0.0013025464934 -0.00677988272762 -0.00136887306666
1 13.4437439661 16.178743772 2.70216164009 -67.7610212509 -34.9864895262 3.1818227225 0.000860934718018 0.00180984784254 0.00360361757973
1 10.6370685647 16.1785623716 5.50092153515 -131.901795221 -27.4066328315 78.5265386698 0.0495105729397 0.0132270925653 -0.018333180535
1 10.8764428313 2.72122586394 8.08552686071 66.1465279017 15.0125386754 -14.3793234723 -0.000358820938395 -0.00449192715077 0.00906030354534
1 13.5726140967 2.74330455439 5.30729459918 56.2008201481 36.7272617421 -88.8403434983 -0.00410762491175 -0.00361449123568 0.0100453460775
1 13.4580202736 0.0173567979114 8.03746194872 -53.2853664044 18.3566709587 -64.5873664786 0.00103546145045 0.000902951423496 0.0056048211331
1 10.7152300249 16.1523119327 10.7519975943 -68.4733813251 -50.704684225 -40.1141638453 0.0322962571903 0.0138629518757 0.0205135759608
1 10.9807255709 2.70881611821 13.5799867296 146.780301209 1.58311326562 63.6684476339 -0.026754230452 -0.00520421055389 -0.0038852121334
1 13.4588415622 2.78409627295 10.8374400057 -42.1248585704 59.7523572402 24.7730581209 0.0139882390926 -0.024601833484 -0.00335342435511
1 13.5603898345 16.1944416902 13.6121406766 35.4428015498 -15.560065495 90.1512428065 -0.0149964042095 0.00623755651945 -0.00922298616672
1 10.7685477228 5.45723246767 16.1351616103 -43.3893637338 35.6094915449 -68.2783979347 -0.00298741009595 -0.021131839001 0.0147551914673
1 10.8204925281 8.1504143986 2.64873287705 0.764371485739 34.8683535679 -36.0988683149 -0.0133574577599 -0.0100899708825 0.0198964277412
1 13.4845276043 7.94348837822 0.139747157237 -20.9908990837 -135.324144122 100.733092679 0.00864359581614 0.0363159992445 -0.0501321521986
1 13.5300732135 5.51081793063 2.6503490237 22.5825341983 86.5395418977 -22.7092585125 0.00538477897725 -0.0264886732317 0.0393120056583
1 10.7562763686 5.22184480893 5.37920502562 -33.3978243383 -132.554137335 -11.885756243 0.0238881553854 0.0621869867423 0.0195875243072
1 10.7795595503 8.18097833072 7.94176963792 -21.1955085502 55.8911037034 -143.632274265 0.0106099578905 -0.0184729056788 0.0262592143012
1 13.5608303111 8.13684528682 5.51845495755 38.1985057866 17.096745634 92.7810786453 -0.00947040374807 -0.0147440110189 -0.024467234808
1 13.6598577233 5.31435337638 8.09687671926 123.788187937 -73.3694507571 -9.13061026523 -0.0259322235614 0.0193815134793 0.00147828169661
1 10.8714631494 5.42867435196 10.8635999572 56.7521933563 28.3283765678 42.1222152106 -0.00575573866496 0.00500965817052 -0.0124935202143
1 10.8318915372 8.0077465705 13.5833806519 20.6901501603 -84.3245747015 58.5229851245 -0.00141582481626 0.0190920802888 -0.0157307727869
1 13.3970478533 8.20710961611 10.8073649622 -101.706262336 85.3828572859 -14.3977007952 0.015561709246 -0.0165278775658 -0.0125505806976
1 13.5644170968 5.46807327112 13.4707080935 40.491662163 47.7426241451 -28.2361224643 -0.0159669401889 -0.0203864732236 0.0160456897429
1 10.906460375 10.8079176967 16.102378105 78.385924557 -13.0583139963 -99.9466774702 -0.0218870148895 -0.0142107474102 0.0153366236063
1 10.9101635022 13.4205287368 2.5040452808 79.0425218535 -87.6780557559 -168.125667176 -0.0260431175157 0.00317431061295 0.0363996699532
1 13.5031043533 13.4075162205 0.0527785309483 8.22949087506 -88.3941354646 38.1672030141 0.0226209171004 0.019644152621 -0.018935861943
1 13.4983583361 10.6051227909 2.69133423213 -19.0220011096 -170.021079033 -3.12470230752 -0.00830942776881 0.0433233883673 0.00913154705732
1 10.7621905286 10.9124555354 5.39797403839 -43.0700719207 91.9455719317 -12.2483777049 0.0054999515518 -0.0120406803164 -0.00646732578382
1 10.9364280434 13.4276557073 8.10781325052 107.693309134 -80.0042939959 -0.320165824925 -0.0217245489259 0.00578894619503 -0.00123274890479
1 13.5056275792 13.4539593763 5.32540514577 -7.32250080792 -52.0050167718 -81.4029358312 -0.000243965634254 0.00695054829261 -0.00232878645359