108
Atom. timestep:0
1 16.2128128824 0.000536983057248 0.000782039469967 -218.720263428 53.6897990076 78.1954401227 -0.000704518903168 -0.000704518903168 -0.000704518903168
1 0.00218222566316 2.7002223292 2.70320780135 218.214058546 -227.775585165 70.7716283692 -0.000704518903168 -0.000704518903168 -0.000704518903168
1 2.70415278352 2.69992769977 16.2149454733 165.269844349 -257.238527257 -5.46117138653 -0.000704518903168 -0.000704518903168 -0.000704518903168
1 2.70125099742 0.00189888457883 2.70409214738 -124.908763978 189.879950294 159.206230312 -0.000704518903168 -0.000704518903168 -0.000704518903168
1 16.2146413387 6.80408412108e-05 5.40774887083 -35.8746351583 6.79557770399 274.878574823 -0.000704518903168 -0.000704518903168 -0.000704518903168
1 0.00155765476424 2.69736230226 8.10659657193 155.756969053 -513.778276789 -90.3343002473 -0.000704518903168 -0.000704518903168 0.000704518903168
1 2.70220196227 2.7038614263 5.40522568331 -29.8122790114 136.13412278 22.5598241486 -0.000704518903168 -0.000704518903168 -0.000704518903168
1 2.70098082919 16.2146444973 8.10737606571 -151.92558591 -35.5587772267 -12.3849228999 -0.000704518903168 -0.000704518903168 0.000704518903168
1 0.00120096924557 9.33743508112e-05 10.808462929 120.088417415 9.32892864782 -153.69859004 -0.000704518903168 -0.000704518903168 0.000704518903168
1 0.00303805075194 2.70367916793 13.5112912248 303.796566876 117.908285775 -120.869009292 -0.000704518903168 -0.000704518903168 0.000704518903168
1 2.70225668994 2.70245685182 10.8125988341 -24.339512462 -4.32332458867 259.891912526 -0.000704518903168 -0.000704518903168 0.000704518903168
1 2.70052991392 0.000142746420695 13.5123040165 -197.017112938 14.2661356046 -19.5898473796 -0.000704518903168 -0.000704518903168 0.000704518903168
1 16.2148533432 5.40336316903 0.00110650941541 -14.6741867829 -163.691602531 110.642434459 -0.000704518903168 -0.000704518903168 -0.000704518903168
1 0.000628232900191 8.10753821778 2.70324570635 62.8147832435 3.83028442529 74.5621286417 -0.000704518903168 0.000704518903168 -0.000704518903168
1 2.7005363542 8.10521117846 16.2147607687 -196.373085518 -228.873646093 -23.9316401442 -0.000704518903168 0.000704518903168 -0.000704518903168
1 2.70267073768 5.40693298666 2.7058219118 17.06526155 193.29015844 332.182671718 -0.000704518903168 -0.000704518903168 -0.000704518903168
1 16.2133281732 5.40641430557 5.40521485084 -167.191189835 141.422050074 21.4765770885 -0.000704518903168 -0.000704518903168 -0.000704518903168
1 16.2107193934 8.10795852777 8.11013641847 -428.069163472 45.8612834326 263.650351206 -0.000704518903168 0.000704518903168 0.000704518903168
1 2.70429791633 8.10579891408 5.40370823623 179.78312532 -170.100084981 -129.184882759 -0.000704518903168 0.000704518903168 -0.000704518903168
1 2.7024878475 5.40415991412 8.10602786986 -1.22375684673 -84.017093474 -147.204506514 -0.000704518903168 -0.000704518903168 0.000704518903168
1 16.214874434 5.40392303754 10.8100276521 -12.5651060624 -107.704751502 2.77371318112 -0.000704518903168 -0.000704518903168 0.000704518903168
1 16.2149595851 8.10677399843 13.5115929352 -4.04999164875 -72.5916500498 -90.6979717767 -0.000704518903168 0.000704518903168 0.000704518903168
1 2.70311597613 8.10671117759 10.8084465946 61.5891062577 -78.8737341228 -155.33202868 -0.000704518903168 0.000704518903168 0.000704518903168
1 2.70151045921 5.40851763021 13.5106644072 -98.9625848489 351.754512364 -183.55077045 -0.000704518903168 -0.000704518903168 0.000704518903168
1 16.2148791599 10.8114989317 0.000609028556747 -12.0925180773 149.901679142 60.8943489114 -0.000704518903168 0.000704518903168 -0.000704518903168
1 16.2135532808 13.5121200503 2.69951721623 -144.680425989 -37.9864672917 -298.286881959 -0.000704518903168 0.000704518903168 -0.000704518903168
1 2.70021071792 13.5143701621 0.000125431942521 -228.936712852 187.024714775 12.5346877983 -0.000704518903168 0.000704518903168 -0.000704518903168
1 2.70011105952 10.8099433013 2.69953951166 -238.902553309 -5.66136671708 -296.057338323 -0.000704518903168 0.000704518903168 -0.000704518903168
1 0.00030273949274 10.8088117643 5.40293869619 30.2654427067 -118.815066719 -206.138885961 -0.000704518903168 0.000704518903168 -0.000704518903168
1 0.000103599130131 13.5130098273 8.1106187902 10.3514065732 50.9912409153 311.887523907 -0.000704518903168 0.000704518903168 0.000704518903168
1 2.69935387563 13.5143934328 5.40203211522 -314.62094118 189.351787497 -296.796982259 -0.000704518903168 0.000704518903168 -0.000704518903168
1 2.70267114209 10.807261726 8.10824390209 17.1057020291 -273.818888649 74.3987144142 -0.000704518903168 0.000704518903168 0.000704518903168
1 16.2126337476 10.8112547368 10.8095849304 -236.633747577 125.482182894 -41.4984501036 -0.000704518903168 0.000704518903168 0.000704518903168
1 0.00119274690094 13.5119752705 13.5122155271 119.266182957 -52.464442652 -28.4387811428 -0.000704518903168 0.000704518903168 0.000704518903168
1 2.70195622765 13.5130536716 10.8084392652 -54.3857409344 55.375661168 -156.064974317 -0.000704518903168 0.000704518903168 0.000704518903168
1 2.70341887287 10.8127979168 13.5151142218 91.8787799808 279.800187322 261.430684947 -0.000704518903168 0.000704518903168 0.000704518903168
1 5.4047821982 0.00353276360304 16.2142056264 -21.7886863583 353.26785167 -79.4458636238 -0.000704518903168 -0.000704518903168 -0.000704518903168
1 5.40535991526 2.70174293497 2.70048240955 35.9830196236 -75.7150089651 -201.767549658 -0.000704518903168 -0.000704518903168 -0.000704518903168
1 8.10510871511 2.70484087289 16.2140534835 -239.119981032 234.078781424 -94.6601600828 0.000704518903168 -0.000704518903168 -0.000704518903168
1 8.10577948592 0.000364261792621 2.70441997499 -172.042900119 36.4176726554 191.988991199 0.000704518903168 -0.000704518903168 -0.000704518903168
1 5.4030679225 0.00104364389263 5.40408357862 -193.216254708 104.355882222 -91.6506434624 -0.000704518903168 -0.000704518903168 -0.000704518903168
1 5.40311708358 2.70207288169 8.10742468915 -188.300146733 -42.7203369264 -7.522579032 -0.000704518903168 -0.000704518903168 0.000704518903168
1 8.1072995816 2.70243406876 5.40394066502 -20.0333330772 -6.60163028739 -105.942003739 0.000704518903168 -0.000704518903168 -0.000704518903168
1 8.11294979344 16.211745149 8.10724583342 544.987846969 -325.493600087 -25.4081515039 0.000704518903168 -0.000704518903168 0.000704518903168
1 5.40413988577 16.2116810078 10.8103238101 -86.0199284876 -331.907728174 32.3895162239 -0.000704518903168 -0.000704518903168 0.000704518903168
1 5.40756076551 2.7018592 13.5141146719 256.068043352 -64.0885063395 161.475695352 -0.000704518903168 -0.000704518903168 0.000704518903168
1 8.10569547509 2.70199555779 10.8052351491 -180.44398397 -50.4527267058 -476.476577286 0.000704518903168 -0.000704518903168 0.000704518903168
1 8.1073347205 0.00108626872293 13.5125518289 -16.519443832 108.618365224 5.19139303229 0.000704518903168 -0.000704518903168 0.000704518903168
1 5.4042874333 5.40572124498 0.00298999506833 -71.2651759567 72.1159908235 298.990998545 -0.000704518903168 -0.000704518903168 -0.000704518903168
1 5.40490190863 8.10704904979 2.70205698478 -9.81764315 -45.0865144121 -44.3100278595 -0.000704518903168 0.000704518903168 -0.000704518903168
1 8.10804693715 8.10744078196 16.2144213015 54.7022208745 -5.9132973939 -57.8783515416 0.000704518903168 0.000704518903168 -0.000704518903168
1 8.10698673436 5.4042824079 2.70373309147 -51.3180569611 -71.767716147 123.30063952 0.000704518903168 -0.000704518903168 -0.000704518903168
1 5.4050450153 5.40415667155 5.40653179683 4.49302395491 -84.3413505626 153.171175714 -0.000704518903168 -0.000704518903168 -0.000704518903168
1 5.40538052539 8.10446258165 8.1072503149 38.0440327687 -303.733326405 -24.9600032213 -0.000704518903168 0.000704518903168 0.000704518903168
1 8.1105401682 8.10892468168 5.40672513685 304.025324459 142.476673463 172.505177118 0.000704518903168 0.000704518903168 -0.000704518903168
1 8.10658924714 5.4038636449 8.10871612052 -91.0667787283 -113.644016046 121.620557891 0.000704518903168 -0.000704518903168 0.000704518903168
1 5.40743161294 5.40556697683 10.8113710132 243.152785823 56.6891761429 137.109820859 -0.000704518903168 -0.000704518903168 0.000704518903168
1 5.40241124808 8.10487274529 13.5117353477 -258.883696793 -262.71696247 -76.4567259092 -0.000704518903168 0.000704518903168 0.000704518903168
1 8.10640247236 8.10636748918 10.8091522067 -109.744256805 -113.242574743 -84.7708250704 0.000704518903168 0.000704518903168 0.000704518903168
1 8.10811508918 5.40366075345 13.5109528232 61.5174234911 -133.933160699 -154.709173013 0.000704518903168 -0.000704518903168 0.000704518903168
1 5.40534814558 10.8089651382 0.000261533499666 34.8060516116 -103.477670185 26.1448434257 -0.000704518903168 0.000704518903168 -0.000704518903168
1 5.40223989675 13.5136614137 2.70406981871 -276.018829346 116.149871425 156.973363353 -0.000704518903168 0.000704518903168 -0.000704518903168
1 8.10912274083 13.51735077 16.2145280831 162.282588527 485.085500185 -47.2001920082 0.000704518903168 0.000704518903168 -0.000704518903168
1 8.10695106316 10.8096881991 2.6993335715 -54.8851771514 -31.1715870938 -316.651354218 0.000704518903168 0.000704518903168 -0.000704518903168
1 5.40506553688 10.811331017 5.40336025012 6.54518111754 133.110201478 -163.983492871 -0.000704518903168 0.000704518903168 -0.000704518903168
1 5.40808576546 13.5144503277 8.10803127546 308.568038094 195.041276574 53.1360516805 -0.000704518903168 0.000704518903168 0.000704518903168
1 8.10639433975 13.5100394229 5.40027129996 -110.557518196 -246.049200467 -472.878507213 0.000704518903168 0.000704518903168 -0.000704518903168
1 8.10569206174 10.8133036635 8.10823085036 -180.785318752 330.374850712 73.0935417398 0.000704518903168 0.000704518903168 0.000704518903168
1 5.40386368418 10.8109341019 10.8095399763 -113.640087901 93.4186908301 -45.9938680766 -0.000704518903168 0.000704518903168 0.000704518903168
1 5.40402337962 13.5142260913 13.5113623764 -97.6705440522 172.617638449 -113.753856537 -0.000704518903168 0.000704518903168 0.000704518903168
1 8.10824077434 13.5081038407 10.8111287777 74.0859403861 -439.607416239 112.88627834 0.000704518903168 0.000704518903168 0.000704518903168
1 8.10733911149 10.8114483469 13.5137899869 -16.0803440533 144.843193287 129.007197823 0.000704518903168 0.000704518903168 0.000704518903168
1 10.8117797379 0.00124753031037 0.00298529747607 177.982295925 124.744523865 298.521239323 0.000704518903168 -0.000704518903168 -0.000704518903168
1 10.8107067033 2.70304192985 2.70273455241 70.6788327141 54.1844781469 23.4467346939 0.000704518903168 -0.000704518903168 -0.000704518903168
1 13.5160736079 2.70340672793 16.2139120444 357.369295688 90.664285582 -108.804060854 0.000704518903168 -0.000704518903168 -0.000704518903168
1 13.5118109997 0.000661431666999 2.70265747077 -68.8915191739 66.1346599031 15.7385708969 0.000704518903168 -0.000704518903168 -0.000704518903168
1 10.8113989682 16.208956167 5.40289275459 139.905324541 -604.391805389 -210.733045874 0.000704518903168 -0.000704518903168 -0.000704518903168
1 10.8099699096 2.70435621255 8.10748126171 -3.00053385778 185.612747729 -1.86532293111 0.000704518903168 -0.000704518903168 0.000704518903168
1 13.5141294439 2.70134496235 5.40729951731 162.952895107 -115.512270178 229.943223495 0.000704518903168 -0.000704518903168 -0.000704518903168
1 13.5109598857 16.2133066756 8.10859237748 -154.002918102 -169.340945352 109.246253997 0.000704518903168 -0.000704518903168 0.000704518903168
1 10.8108941677 0.00217685451693 10.8104917046 89.4252716839 217.676943926 49.1789632435 0.000704518903168 -0.000704518903168 0.000704518903168
1 10.8095931754 2.70332903462 13.5118199748 -40.673954817 82.8949554033 -67.9940157729 0.000704518903168 -0.000704518903168 0.000704518903168
1 13.5121684398 2.7020814954 10.8079973924 -33.1475136207 -41.8589659295 -200.252252796 0.000704518903168 -0.000704518903168 0.000704518903168
1 13.5150691941 16.2146948354 13.5181688403 256.927910014 -30.5249668268 566.89253731 0.000704518903168 -0.000704518903168 0.000704518903168
1 10.8103387033 5.40714387107 16.2145031345 33.8788338369 214.378599193 -49.6950553124 0.000704518903168 -0.000704518903168 -0.000704518903168
1 10.8085021385 8.10718196588 2.70407635881 -149.777637972 -31.7949054683 157.627373624 0.000704518903168 0.000704518903168 -0.000704518903168
1 13.5125957386 8.10731480366 0.00111063719942 9.58236951258 -18.5111275478 111.055212858 0.000704518903168 0.000704518903168 -0.000704518903168
1 13.514934792 5.40579928272 2.70233051789 243.487700216 79.9197651326 -16.9567172812 0.000704518903168 -0.000704518903168 -0.000704518903168
1 10.8103010365 5.40370698528 5.40582882953 30.1121568185 -129.309977282 82.8744463249 0.000704518903168 -0.000704518903168 -0.000704518903168
1 10.8129570928 8.10613919865 8.10603426005 295.71778721 -136.071627987 -146.565487317 0.000704518903168 0.000704518903168 0.000704518903168
1 13.5118994181 8.10703323995 5.40404591417 -60.0496821603 -46.6674981689 -95.4170892357 0.000704518903168 0.000704518903168 -0.000704518903168
1 13.5145021962 5.40693034957 8.10748448128 200.228123956 193.026449607 -1.54336563626 0.000704518903168 -0.000704518903168 0.000704518903168
1 10.813511098 5.4058002138 10.8091393446 351.118300447 80.0128729732 -86.0570298405 0.000704518903168 -0.000704518903168 0.000704518903168
1 10.8121266674 8.10935408252 13.5115108724 212.675246859 185.416756925 -98.9042526466 0.000704518903168 0.000704518903168 0.000704518903168
1 13.512374234 8.10573473235 10.8083696157 -12.5680949938 -176.518257834 -163.029925273 0.000704518903168 0.000704518903168 0.000704518903168
1 13.5122060113 5.40596597142 13.5128764129 -29.3903632479 96.5886346954 37.649792795 0.000704518903168 -0.000704518903168 0.000704518903168
1 10.8092217213 10.8096077686 0.00105762847482 -77.8193599106 -39.2146343727 105.754340432 0.000704518903168 0.000704518903168 -0.000704518903168
1 10.808466344 13.5116890485 2.70368938166 -153.357089996 -81.0866429379 118.929658605 0.000704518903168 0.000704518903168 -0.000704518903168
1 13.5150348649 13.5148605401 0.000616056258985 253.494993625 236.062513956 61.5971191307 0.000704518903168 0.000704518903168 -0.000704518903168
1 13.5088470084 10.8086982529 2.70160305009 -365.290650897 -130.166198354 -89.7034965899 0.000704518903168 0.000704518903168 -0.000704518903168
1 10.8117416971 10.8101020298 5.40633639567 174.178215023 10.2114898566 133.631059646 0.000704518903168 0.000704518903168 -0.000704518903168
1 10.8097300105 13.5123002931 8.10653101758 -26.9904419984 -19.9621824666 -96.8897352884 0.000704518903168 0.000704518903168 0.000704518903168
1 13.5113539452 13.5126997544 5.40361113455 -114.59697365 19.9839485128 -138.895050847 0.000704518903168 0.000704518903168 -0.000704518903168
1 13.5141618573 10.8083017304 8.10709663927 166.194233494 -169.818452673 -40.3275662676 0.000704518903168 0.000704518903168 0.000704518903168
1 10.8107597926 10.8086647102 10.809049206 75.9877641787 -133.5204742 -95.0708967787 0.000704518903168 0.000704518903168 0.000704518903168
1 10.8075059796 13.5153052525 13.5128795733 -249.393527898 280.533750949 37.9658391351 0.000704518903168 0.000704518903168 0.000704518903168
1 13.5155682437 13.5136986748 10.808486946 306.832869939 119.875982493 -151.296893703 0.000704518903168 0.000704518903168 0.000704518903168
1 13.5125718339 10.8113633041 13.5131085437 7.19189961065 136.338918136 60.8628791949 0.000704518903168 0.000704518903168 0.000704518903168
108
Atom. timestep:0.997765006386
1 16.043467275 0.0621205616256 0.093196233895 -43.4510822936 79.9629544568 142.412766452 0.182479313548 0.025239998019 0.0866582570107
1 0.198476531676 2.4982604913 2.77723067634 139.152142707 -139.039896295 78.2848209275 -0.0877064253667 0.092717459873 0.00338413299442
1 2.84435770257 2.47461118453 16.2062779163 77.5664016844 -156.731885349 -15.7819971518 -0.0909654746087 0.0904266769807 -0.00866451981884
1 2.58541706109 0.174578391356 2.84989121949 -85.0900957038 129.032881158 117.972132003 0.054726159668 -0.0654917767277 -0.0351610613113
1 16.1686995905 16.2000912479 5.64975863189 -69.3924881476 -71.1440124884 161.229969146 -0.032978713372 -0.0831943136277 -0.116548788979
1 0.141873704062 2.24284864741 8.03662132009 101.071737647 -311.578210577 -17.5456583081 -0.0569780638453 0.204618684615 0.0771430490458
1 2.6722094832 2.83298127792 5.42449968594 -30.2828176732 112.706445104 12.3845232614 -0.00109826577546 -0.0228952042635 -0.0084902173295
1 2.58307790554 16.1689396681 8.09248054921 -36.0244968318 -76.8888564072 -20.6332747252 0.114234692707 -0.0503419303158 -0.00812897350635
1 0.109337521442 0.0141262805575 10.6821523224 85.1804172782 22.6222876311 -65.8532008074 -0.0267071061265 0.00898860479267 0.0798877074881
1 0.279669670334 2.81776679934 13.406453232 214.368401791 108.204274431 -61.5450755127 -0.0858791862659 -0.00539592447037 0.0656570174924
1 2.70086107099 2.70125087444 11.048516002 51.6003812096 4.75085365271 179.996720183 0.0736226265355 0.00642702960367 -0.0779595025106
1 2.51470903119 0.00902628238499 13.4947906456 -162.580768689 -4.64493884748 -13.2505656951 0.0291830577587 -0.0182643380601 0.00535874598606
1 0.00361388661888 5.2495011379 0.106511781343 45.8941174578 -127.722721626 94.1159356163 0.0589505041027 0.0400306496328 -0.0138561226925
1 0.056194014506 8.11176674252 2.76842541791 41.5334353848 2.78454787331 44.9756603228 -0.0159474123932 -0.00511781955037 -0.0259441845736
1 2.50935539616 7.89171063139 16.1954631904 -179.912878992 -182.584614223 -8.33965305694 0.014778053158 0.0377400745675 0.0146358471731
1 2.715274907 5.56996922404 3.00921630193 3.20441365378 92.3212110476 234.230226048 -0.0127432851545 -0.0997916329149 -0.0995611431105
1 16.0607365499 5.53756449089 5.4322365539 -119.538941961 111.71606058 35.7797555644 0.0448666696263 -0.0226768208689 0.00794443781196
1 15.8429086443 8.15099916937 8.34617592705 -220.12101485 37.123664534 173.594804129 0.212940522602 -0.00761902107342 -0.0852512455184
1 2.87341792687 7.96372488631 5.29834296266 150.865973129 -73.1394980209 -46.4080071676 -0.0190705023189 0.100137571542 0.0870282046009
1 2.68802178585 5.32380216095 7.97535931658 -39.8341591923 -70.3352474016 -97.5973112484 -0.0296980804457 0.0153849333149 0.0402864834817
1 16.2025941526 5.29643261151 10.8029628949 -12.7567274728 -103.849693063 -25.7328588539 -0.00152818174984 0.00728643882546 -0.0222568217825
1 16.2027068224 8.05029502226 13.4232297042 -32.4738987275 -23.171015997 -84.9081342232 -0.0287075470099 0.0418536660555 0.00338994603937
1 2.75460231526 8.03301363197 10.6550906514 33.9224153763 -67.4304647167 -151.20620865 -0.0187063957574 0.00310388658958 0.00222012420293
1 2.60354096177 5.71958235743 13.339299693 -107.121342156 220.034670669 -150.746653429 -0.0245818361029 -0.12323721027 0.0215889218539
1 16.1902899764 10.9410212043 0.045473423635 -53.7527525652 86.7322353657 5.27279868279 -0.0403966815668 -0.0536455547686 -0.0571378104575
1 16.0738444044 13.4821130621 2.43854967586 -119.592853144 -14.2961274235 -172.362999956 0.0378088244654 0.0180701801935 0.125516320181
1 2.49142925063 13.7085157647 0.0167126280138 -169.858665993 208.345955124 25.2561164816 0.0461718540298 0.016206401341 0.0109768112414
1 2.48350985544 10.8037675676 2.41808770384 -167.29345339 -6.04172836634 -249.501495259 0.065644844852 0.00145530817108 0.0424295422631
1 0.0268172523629 10.698246835 5.20898966227 19.0379129742 -93.6395216601 -169.038865511 -0.00885551521724 0.0220112861056 0.0313606800635
1 0.0157442368037 13.5520977884 8.3763217298 31.8835340851 16.836530922 162.008923405 0.0259323412116 -0.0263379773504 -0.139370241708
1 2.39110882482 13.6840002335 5.12731580803 -297.67201852 129.238946385 -233.612244628 0.0118784865652 -0.0521390635038 0.0483760680415
1 2.71524006847 10.5484289489 8.16704784527 2.2884097245 -231.013276377 28.1606371198 -0.0133866005446 0.0336899906578 -0.0379942389403
1 15.9981349174 10.9187393025 10.7829211632 -170.41241361 67.7913889901 3.05840923304 0.053198308823 -0.0520154404673 0.036169895461
1 0.11216420796 13.466834483 13.4811554359 91.3382178595 -30.8946263237 -37.1669854637 -0.0271341845595 0.0168632592982 -0.00784718584022
1 2.65178222998 13.5556722745 10.6632733333 -38.7779783008 15.8674212231 -119.830741276 0.0172971093352 -0.0341198220911 0.0352283386878
1 2.7903531789 11.0713803534 13.7607963524 79.3661478953 217.360009931 217.216137601 -0.0074797567956 -0.0491482921265 -0.0318696819546
1 5.39013659203 0.307562068853 16.1417482921 12.3607567335 189.282738064 -58.1608480648 0.0480637183218 -0.157311399626 0.0172881132453
1 5.43218506051 2.63905086059 2.52545436172 9.64276940193 -35.5239614703 -116.911258535 -0.0200435629631 0.0341108347681 0.0752880160868
1 7.90281096717 2.93194070669 16.1369770673 -122.275741319 216.579299695 -35.5126993038 0.103692171111 -0.00887201640894 0.0578958597295
1 7.94365586197 0.0392825254866 2.88151669615 -141.445115683 39.8571169942 148.348609286 0.0258193619553 -0.00324068588711 -0.0336088968514
1 5.21809593268 0.103023849485 5.32722362178 -170.71994801 97.7808645138 -48.8604403907 0.0157880630918 -0.00451068996816 0.0328572872163
1 5.21732976207 2.65056123836 8.10186929813 -185.511762786 -65.1003896545 -3.79344745389 -0.00443435390851 -0.0133766664082 -0.000301902018814
1 8.0890790568 2.68830794697 5.3133596092 -15.8438263309 -24.9820932838 -59.921702305 0.00228324322795 -0.00940954571503 0.0376488624583
1 8.62262572851 15.9113706316 8.07468616191 430.311421761 -232.224906911 -43.5741020901 -0.111468841117 0.10821083884 -0.00946380496799
1 5.32735965942 15.9116134968 10.8362595458 -59.1167075219 -227.958363508 11.8978224183 0.020646016939 0.0980743100157 -0.0200655993895
1 5.6334254431 2.65415540937 13.6424766445 159.207182711 -10.2599172628 49.0467454966 -0.0888710219062 0.0505281716633 -0.110295728619
1 7.93486005699 2.6370670705 10.3599432411 -151.649987023 -103.069712143 -379.114042627 0.0239842011904 -0.0570110245815 0.0850900418875
1 8.09390903709 0.114513304059 13.5073562413 -8.4040074208 123.559133372 -27.7279084444 0.00479794171683 0.013155058567 -0.029348618947
1 5.32819335519 5.47507615134 0.280142468596 -85.6549574854 63.5707018965 233.830744643 -0.0118166447469 -0.00850181555105 -0.0530644911756
1 5.40175476599 8.07074347765 2.66640841598 10.0868072923 -15.5121982958 -18.7872702451 0.0158949440652 0.0286235624284 0.0211629412774
1 8.15735171522 8.09189768043 16.1495956298 38.028869401 -33.1186210483 -77.364795308 -0.0142911458306 -0.0200140633456 -0.0141921545686
1 8.05958274811 5.3409593618 2.82476512562 -39.6917972142 -46.8387673805 115.530168396 0.00897263317553 0.0196704238618 -0.00758582078956
1 5.42141928382 5.31786737215 5.54480388308 38.9593844426 -92.3842810848 107.504234248 0.0255792037352 -0.00993078386118 -0.0386942880131
1 5.44408975044 7.82341770859 8.08028872542 37.4807439294 -236.72984315 -28.1683126333 -0.0042430748563 0.0537721051965 0.00160559322999
1 8.3917732749 8.24770587511 5.57829097595 234.993641482 131.119898803 172.434584926 -0.0577741202558 -0.00954376625245 0.00421360424807
1 8.0286142268 5.30149108197 8.21204662041 -51.4472131966 -74.7051395238 61.2611074113 0.0330282080918 0.0401115837729 -0.0568525722384
1 5.62215904416 5.44241090025 10.9366345735 155.359736159 -5.41274451965 99.6268110828 -0.074802355111 -0.0539917308405 -0.0337832600324
1 5.1694694018 7.87322891822 13.448370216 -172.239847328 -160.945831459 -34.2848739783 0.0857387026184 0.0966511275505 0.0384377712156
1 8.0132417399 8.01149661129 10.729144629 -59.3693067588 -56.8220358935 -70.5130138829 0.0417508908538 0.0478043503304 0.0111673704689
1 8.17718481036 5.28394837689 13.361009677 85.9939024038 -91.0587261851 -139.485201243 0.0226903351325 0.0351318303215 0.0139187391417
1 5.43275048186 10.7146049943 0.0214174143609 10.1602624686 -80.4927415276 10.7456907346 -0.0238877240179 0.0127093105812 -0.01374358338
1 5.1307063341 13.6287946064 2.83264477856 -263.869403402 113.775779571 73.6454141242 0.00899379697354 -0.000928180414902 -0.0645137203003
1 8.25088615273 13.9820423398 16.1799533106 102.285632389 424.620281815 -5.75879752502 -0.0469982957313 -0.0482044123031 0.0390591229505
1 8.05060724401 10.7789487701 2.3975778449 -59.4549345984 -31.2086625348 -270.549965128 -0.00360158374751 -0.00251992645979 0.0400585012708
1 5.39912273854 10.9299376469 5.24722037591 -31.951250248 86.899818938 -140.105182899 -0.0337391532574 -0.041690271192 0.0197863091741
1 5.69193303616 13.7080361558 8.14393558749 235.750194686 195.795310973 1.54823475474 -0.0585700865592 0.00892611667466 -0.0428543416548
1 7.9976403409 13.2739322429 4.95889690793 -105.652254183 -214.834020032 -373.861784724 0.00268749382088 0.0283530519858 0.086315789059
1 7.93897201056 11.1084365468 8.16401933059 -136.852491511 218.501033377 13.0959300046 0.0390780235966 -0.101240236398 -0.0604313966652
1 5.28966279666 10.893899212 10.771309223 -115.422736544 64.1798056517 -23.2536781039 -0.00133204677744 -0.0201730808336 0.0173590965547
1 5.31140512007 13.6773989328 13.419137468 -81.1893321204 139.108400158 -45.6270556215 0.0150608669844 -0.0359021180044 0.0629551884607
1 8.18346376366 13.1066422308 10.9254760019 75.7030828128 -321.886059062 119.028632107 -0.000583172388742 0.100198953503 0.00682768393734
1 8.08763419115 10.9416418251 13.6444107073 -24.6469555074 101.097948831 140.349737181 -0.00428986446492 -0.0357944771171 0.019352060183
1 10.9769329596 0.13159357583 0.287019817295 138.680452319 137.135282237 250.454233035 -0.0339442150985 0.00390679562335 -0.0470250184244
1 10.8822031835 2.76151088113 2.72710140131 71.7559176676 68.9526071207 28.0073324152 -0.000829172143078 0.0154500666411 0.00672182356752
1 13.8456151793 2.79975783324 16.1161510325 268.073375374 105.789530525 -75.192669026 -0.0828819045472 0.00698860061316 0.0266940161259
1 13.4579543017 0.0695544713284 2.72674832034 -19.4033878463 74.1651452196 43.5148168204 0.0472906198403 0.00613985025626 0.028108271754
1 10.9295739162 15.6640047518 5.2093180306 59.4819301663 -407.718636121 -147.845849822 -0.0885954575666 0.190238922236 0.0702579900224
1 10.8126164648 2.8762523894 8.09922248272 12.6668853941 144.577287452 -15.4287881799 0.0109026492467 -0.0344652338626 -0.00277980638832
1 13.6649582426 2.59150010069 5.62656340038 126.460361612 -97.0143251227 198.95083229 -0.0298989171795 0.017562284772 -0.023790020966
1 13.359393773 16.0540077537 8.20327525642 -145.560896128 -135.667228545 61.3232319616 0.0083498231933 0.0325321810056 -0.0451274109028
1 10.8979624237 0.205313555296 10.8662568381 78.8169282331 176.098153551 67.8566787688 -0.0136148295624 -0.0312065736786 0.0133613121996
1 10.7757179979 2.78185796719 13.4501234863 -19.269318945 71.2118343716 -48.7566683958 0.0192512748008 -0.00772997953016 0.0163266175661
1 13.4939953243 2.66212634492 10.6201704862 12.2241056449 -33.4524473534 -167.167024894 0.0375938685311 0.0101745946762 0.0212260040027
1 13.7448537917 16.1957301622 14.0179042519 154.341083843 8.96606710717 339.328646762 -0.117042695539 0.0410203975122 -0.227993524084
1 10.843023596 5.60759230978 16.1693406671 29.4947591877 174.292511973 -36.8823927549 -0.00414835137366 -0.0306389330689 0.00913449654395
1 10.6637301692 8.06910897051 2.85333406362 -135.055229625 -49.9825208039 129.624750253 0.011656833866 -0.0140512993331 -0.0270231878434
1 13.5279222808 8.09276055379 0.105379986187 26.4714697488 -6.9940902827 89.5415920528 0.0135108493587 0.00845412225585 -0.0190217836474
1 13.7402078879 5.47263951867 2.68901475393 187.257169637 41.4556722444 -7.83241904744 -0.0478818115929 -0.0303154353406 0.0050841194966
1 10.8443199485 5.27880268255 5.48164480569 40.3290984807 -113.393780304 59.2018052773 0.00639909780881 0.0172934475445 -0.0232618810281
1 11.0869894488 7.97878362685 7.97008742688 232.564108091 -110.736405382 -113.576380044 -0.0490449313143 0.0201607681272 0.0287029990774
1 13.4561323489 8.06462317457 5.30534945356 -45.8103632438 -32.7772785852 -106.024650903 0.0134148707744 0.0129297551329 -0.00984352330977
1 13.703145844 5.56171047911 8.09728912156 156.172989606 66.6354168701 -29.5371263689 -0.0492619838087 -0.119854126866 -0.0248186271561
1 11.1357198087 5.47663294302 10.7268020725 260.415897882 47.140984536 -73.8342928556 -0.081324040229 -0.0371501843749 0.01133790824
1 11.0113425041 8.28673127702 13.4169183251 173.879505798 160.554343771 -83.3419009195 -0.0293212763495 -0.0215046668157 0.0167117378366
1 13.4983315527 7.9508927444 10.6797283623 -24.3911114562 -105.367755856 -44.7059514649 -0.0205012290443 0.0674253860305 0.118886906556
1 13.4909782209 5.4944430908 13.5486423553 -5.82205250917 74.1288413147 33.2035001497 0.0177301052433 -0.0159379053614 -0.00191115129699
1 10.7368649799 10.7791434388 0.0905924644916 -63.5253209333 -16.1455427753 52.3655307994 0.00908898846519 0.0141020751245 -0.051398989613
1 10.6682906694 13.4187152735 2.78770691952 -112.106953593 -129.090500197 -3.38093971852 0.036751749809 -0.05824457663 -0.126577054615
1 13.7295844933 13.7161135955 0.0614230893237 125.255448916 118.917983994 57.335544003 -0.123444066375 -0.113288104543 -0.00815517315587
1 13.1681191574 10.6879542161 2.61807399214 -289.363944287 -101.132893619 -68.0466346587 0.0654416498084 0.0241603780087 0.0233181216006
1 10.972766356 10.8212932683 5.53724585864 136.790904439 12.8658055232 125.052811907 -0.0275081329815 0.00134353673575 -0.00860833929789
1 10.8027569539 13.4642797893 8.02264454976 48.263110439 -123.159371166 -56.3266385476 0.0875827181181 -0.116291074981 0.0344803946759
1 13.4330365448 13.5107981789 5.271253464 7.80258125223 -56.6018176512 -120.158354477 0.121314671899 -0.0794023638105 0.0136598326498
1 13.6610601444 10.6665502779 8.06005683268 98.7413721727 -75.4776376877 -62.1012575488 -0.0690122235175 0.0929573453961 -0.0207676607205