108
Atom. timestep:0
1 0.00208347083738 0.00625737072228 15.7768347577 20.7319180501 62.4709166321 -31.7552126938 -0.000851333788447 -0.000851333788447 -0.000851333788447
1 15.7740035774 2.62786603701 2.63034653747 -60.0670158511 -21.4424199817 3.36258448294 -0.000851333788447 -0.000851333788447 -0.000851333788447
1 2.63116246608 2.63053057962 0.00351700077994 11.5218705328 5.20300594877 35.0672173841 -0.000851333788447 -0.000851333788447 -0.000851333788447
1 2.63215528536 0.00697492070606 2.63951061931 21.4500633141 69.646416424 95.0034022862 -0.000851333788447 -0.000851333788447 -0.000851333788447
1 0.00450407735831 0.00290276015168 5.2624771097 44.9379831046 28.9248111407 24.8738870284 -0.000851333788447 -0.000851333788447 0.000851333788447
1 15.7799783012 2.63626564219 7.8898509078 -0.319778392244 62.5536312948 -1.38813181547 -0.000851333788447 -0.000851333788447 0.000851333788447
1 2.63673407201 2.63096803739 5.25691512523 67.2379294616 9.57758366885 -30.7459573549 -0.000851333788447 -0.000851333788447 0.000851333788447
1 2.62181759217 0.00648220590194 7.89443462426 -81.9268679938 64.7192684143 44.4490325381 -0.000851333788447 -0.000851333788447 0.000851333788447
1 15.779705227 0.002107801696 10.5256762118 -3.05052054116 20.9752266348 56.8649080096 -0.000851333788447 -0.000851333788447 0.000851333788447
1 0.00583061215871 2.61935384511 13.1521577365 58.2033310237 -106.564338386 21.4745745731 -0.000851333788447 -0.000851333788447 -0.000851333788446
1 2.62888422999 2.62469317764 10.5153073767 -11.2604902257 -53.171013474 -46.823442976 -0.000851333788447 -0.000851333788447 0.000851333788447
1 2.62711817949 0.00407542027623 13.1505257647 -28.9209950914 40.6514123112 5.15485684001 -0.000851333788447 -0.000851333788447 -0.000851333788446
1 15.7738084899 5.26294099001 15.7754509262 -62.0178911789 29.5126901189 -45.5935276924 -0.000851333788447 0.000851333788447 -0.000851333788447
1 15.775020581 7.88873606401 2.629184256 -49.8969796558 -12.5365696436 -8.26023011998 -0.000851333788447 0.000851333788447 -0.000851333788447
1 2.63342475902 7.88916399208 15.7718778687 34.1447997533 -8.25728899078 -81.3241022997 -0.000851333788447 0.000851333788447 -0.000851333788447
1 2.62118349909 5.26040287989 2.63376225897 -88.2677987488 4.13158905936 37.5197992537 -0.000851333788447 0.000851333788447 -0.000851333788447
1 0.00103712351735 5.25576437 5.25333292968 10.2684449168 -42.2535095267 -66.5679126191 -0.000851333788447 0.000851333788447 0.000851333788447
1 0.000373073611564 7.89589090246 7.8836107985 3.62794590148 59.0118144027 -63.7892243821 -0.000851333788447 0.000851333788447 0.000851333788447
1 2.63148210982 7.89493325876 5.26024914711 14.7183078873 49.435377438 2.59426124456 -0.000851333788447 0.000851333788447 0.000851333788447
1 2.62427878304 5.2606408894 7.88888503035 -57.3149594296 6.51168412685 -11.0469062387 -0.000851333788447 0.000851333788447 0.000851333788447
1 0.00315447699955 5.25931359392 10.5316339385 31.4419796033 -6.76127052738 116.442174375 -0.000851333788447 0.000851333788447 0.000851333788447
1 15.7794837849 7.88151548248 13.1511663632 -5.26494129072 -84.7423844763 11.5608421232 -0.000851333788447 0.000851333788447 -0.000851333788446
1 2.63128195259 7.90106976818 10.5188550964 12.716735606 110.800471308 -11.3462458517 -0.000851333788447 0.000851333788447 0.000851333788447
1 2.63299990544 5.26163128947 13.1489769223 29.8962639699 16.4156847557 -10.3335670246 -0.000851333788447 0.000851333788447 -0.000851333788446
1 15.7751148408 10.5102791716 15.7752719612 -48.9543821609 -97.1054930364 -47.3831774877 -0.000851333788447 0.000851333788447 -0.000851333788447
1 0.000228804123347 13.1526452573 2.63445867882 2.18525102855 26.3497824099 44.4839977205 -0.000851333788447 -0.000851333788446 -0.000851333788447
1 2.63322509825 13.1548094611 15.7760841831 32.1481921023 47.9918208698 -39.2609593072 -0.000851333788447 -0.000851333788446 -0.000851333788447
1 2.63262648479 10.5275372815 2.62439816744 26.1620575155 75.4756050449 -56.1211154444 -0.000851333788447 0.000851333788447 -0.000851333788447
1 0.00168545836179 10.5231111789 5.26458636009 16.7517933198 31.2145794619 45.9663907901 -0.000851333788447 0.000851333788447 0.000851333788447
1 0.00324503656799 13.1540103762 7.89450601989 32.3475752819 40.0009720335 45.1629887804 -0.000851333788447 -0.000851333788446 0.000851333788447
1 2.6324450421 13.1531277326 5.26299940228 24.3476306871 31.1745360131 30.0968128096 -0.000851333788447 -0.000851333788446 0.000851333788447
1 2.62575747023 10.5255295618 7.88323246823 -42.528087595 55.3984079832 -67.5725271026 -0.000851333788447 0.000851333788447 0.000851333788447
1 15.7724705243 10.5181579721 10.5188908695 -75.397546758 -18.3174891127 -10.9885149601 -0.000851333788447 0.000851333788447 0.000851333788447
1 0.001015965359 13.1463815237 13.1492172621 10.0568633347 -36.2875529135 -7.93016930501 -0.000851333788447 -0.000851333788446 -0.000851333788446
1 2.63403317155 13.1536796218 10.5172836398 40.2289250902 36.6934272967 -27.060811156 -0.000851333788447 -0.000851333788446 0.000851333788447
1 2.63548419009 10.5133083438 13.1526979817 54.7391103193 -66.8137712475 26.8770265957 -0.000851333788447 0.000851333788447 -0.000851333788446
1 5.262690891 0.00888731810578 0.0035760638443 27.0116999752 88.7703902987 35.6578480238 0.000851333788447 -0.000851333788447 -0.000851333788447
1 5.26024466395 2.6271776175 2.63430425238 2.54942963923 -28.3266149806 42.9397332992 0.000851333788447 -0.000851333788447 -0.000851333788447
1 7.89437215059 2.62942744271 0.00346401378905 43.8242957748 -5.82836304536 34.5373474785 0.000851333788447 -0.000851333788447 -0.000851333788447
1 7.88457500013 15.7769921139 2.62533061324 -54.147208153 -30.1816511271 -46.796657481 0.000851333788447 -0.000851333788447 -0.000851333788447
1 5.25409250196 15.772996326 5.25996082172 -58.9721898492 -70.1395299718 -0.288992626614 0.000851333788447 -0.000851333788447 0.000851333788447
1 5.26805051223 2.63197211537 7.89036468476 80.6079119558 19.6183634243 3.74963774085 0.000851333788447 -0.000851333788447 0.000851333788447
1 7.89226567836 2.61895850682 5.26096275614 22.7595736791 -110.517721274 9.73035155724 0.000851333788447 -0.000851333788447 0.000851333788447
1 7.88871734317 15.7780754307 7.89045730331 -12.7237780313 -19.3484833629 4.67582330524 0.000851333788447 -0.000851333788447 0.000851333788447
1 5.26388769312 15.7780350871 10.5206768967 38.9797211493 -19.7519189233 6.8717573875 0.000851333788447 -0.000851333788447 0.000851333788447
1 5.26224900971 2.63710686554 13.1403743321 22.5928871937 70.9658647927 -96.359468084 0.000851333788447 -0.000851333788447 -0.000851333788446
1 7.88629984041 2.62482013218 10.5187636626 -36.8988054945 -51.9014680092 -12.2605833236 0.000851333788447 -0.000851333788447 0.000851333788447
1 7.88460185371 0.00596509776385 13.1447274251 -53.878672413 59.5481870665 -52.8285388393 0.000851333788447 -0.000851333788447 -0.000851333788446
1 5.25856955029 5.25682038865 15.7736112388 -14.2017067729 -31.6933231163 -63.9904019443 0.000851333788447 0.000851333788447 -0.000851333788447
1 5.26279163635 7.890504768 2.63062820692 28.0191534835 5.15047019132 6.17927893159 0.000851333788447 0.000851333788447 -0.000851333788447
1 7.89220163448 7.89183805905 15.7798012073 22.1191348703 18.4833806041 -2.09071717031 0.000851333788447 0.000851333788447 -0.000851333788447
1 7.89208975875 5.26648043247 2.62875027777 21.0003775658 64.9071145048 -12.6000124479 0.000851333788447 0.000851333788447 -0.000851333788447
1 5.25941679418 5.25910065739 5.2651663904 -5.7292679971 -8.89063583868 51.7666938729 0.000851333788447 0.000851333788447 0.000851333788447
1 5.25664547242 7.89556890205 7.89476030555 -33.4424854195 55.7918103216 47.7058453949 0.000851333788447 0.000851333788447 0.000851333788447
1 7.89042521907 7.89655791572 5.26306388808 4.35498086079 65.6819470023 30.7416708171 0.000851333788447 0.000851333788447 0.000851333788447
1 7.89341320239 5.25478751781 7.88134458108 34.2348138459 -52.0220313682 -86.45139849 0.000851333788447 0.000851333788447 0.000851333788447
1 5.25656895587 5.26023102419 10.5233977169 -34.2076509185 2.41303209245 34.0799594403 0.000851333788447 0.000851333788447 0.000851333788447
1 5.25667027718 7.89667198914 13.1534922392 -33.1944378107 66.8226811353 34.8196010968 0.000851333788447 0.000851333788447 -0.000851333788446
1 7.88599272453 7.8857247864 10.5164995875 -39.9699642474 -42.6493454973 -34.9013349236 0.000851333788447 0.000851333788447 0.000851333788447
1 7.88817271069 5.26124086373 13.1418082148 -18.1701028325 12.5114273987 -82.0206412608 0.000851333788447 0.000851333788447 -0.000851333788446
1 5.25506620593 10.5171587641 15.774383942 -49.235150226 -28.3095685243 -56.26336948 0.000851333788447 0.000851333788447 -0.000851333788447
1 5.26230575206 13.15419305 2.62869883039 23.1603106648 41.8277092273 -13.1144862322 0.000851333788447 -0.000851333788446 -0.000851333788447
1 7.89800198643 13.1491747862 15.7752944757 80.1226540229 -8.35492811926 -47.158032731 0.000851333788447 -0.000851333788446 -0.000851333788447
1 7.88466263304 10.5222175021 2.62535524572 -53.2708790523 22.2778109811 -46.5503327143 0.000851333788447 0.000851333788447 -0.000851333788447
1 5.25670614141 10.5210473493 5.26490795097 -32.8357954716 10.5762834562 49.182299626 0.000851333788447 0.000851333788447 0.000851333788447
1 5.25582678861 13.1418334553 7.88372864552 -41.6293234909 -81.7682371022 -62.6107542086 0.000851333788447 -0.000851333788446 0.000851333788447
1 7.88421682049 13.1543433878 5.26481782932 -57.7290045789 43.3310871992 48.2810830612 0.000851333788447 -0.000851333788446 0.000851333788447
1 7.88498526791 10.5222807737 7.89171711373 -50.0445303845 22.91052726 17.2739273595 0.000851333788447 0.000851333788447 0.000851333788447
1 5.25604354179 10.5190000322 10.5161322142 -39.4617916163 -9.89688778711 -38.5750674665 0.000851333788447 0.000851333788447 0.000851333788447
1 5.26008941262 13.1559217339 13.1588687106 0.99691638418 59.1145487019 88.5843149362 0.000851333788447 -0.000851333788446 -0.000851333788446
1 7.88481826022 13.1506743542 10.5180262578 -51.7146073012 6.6407518764 -19.6346321543 0.000851333788447 -0.000851333788446 0.000851333788447
1 7.89155232171 10.5245617123 13.1561728029 15.6260072366 45.7199124603 61.6252380233 0.000851333788447 0.000851333788447 -0.000851333788446
1 10.5238534295 15.777109328 0.00406656167521 38.6370848565 -29.0095099361 40.5628263015 0.000851333788447 -0.000851333788447 -0.000851333788447
1 10.5218134919 2.629694795 2.62401490276 18.2377087761 -3.1548401429 -59.9537621922 0.000851333788447 -0.000851333788447 -0.000851333788447
1 13.1440934181 2.62794285431 0.00143013569234 -59.1686087887 -20.6742469316 14.1985666415 -0.000851333788446 -0.000851333788447 -0.000851333788447
1 13.1455225657 15.7745212307 2.62446699155 -44.8771332168 -54.8904825251 -55.4328743021 -0.000851333788446 -0.000851333788447 -0.000851333788447
1 10.5199290572 0.0031558294317 5.25650795501 -0.606637753858 31.4555039247 -34.8176594972 0.000851333788447 -0.000851333788447 0.000851333788447
1 10.5217545548 2.63114038293 7.88672910125 17.648338487 11.3010390695 -32.6061971065 0.000851333788447 -0.000851333788447 0.000851333788447
1 13.1532878504 2.63246121169 5.24717502776 32.7757138498 24.5093265855 -128.146931406 -0.000851333788446 -0.000851333788447 0.000851333788447
1 13.1578548455 0.00341962320186 7.89065424295 78.4456646692 34.0934416094 6.64521962313 -0.000851333788446 -0.000851333788447 0.000851333788447
1 10.5116056373 15.7779283766 10.5165200574 -83.840835981 -20.8190240019 -34.6966351154 0.000851333788447 -0.000851333788447 0.000851333788447
1 10.5255356198 2.63028876227 13.1531705671 55.4589873421 2.78483244807 31.6028803391 0.000851333788447 -0.000851333788447 -0.000851333788446
1 13.1495835017 2.62907854305 10.5218227639 -4.26777314381 -9.31735959741 18.3304290733 -0.000851333788446 -0.000851333788447 0.000851333788447
1 13.1457180213 15.7772391147 13.1498247094 -42.922577397 -27.7116430506 -1.85569621715 -0.000851333788446 -0.000851333788447 -0.000851333788446
1 10.5149322044 5.26975772728 15.7746129895 -50.5751650244 97.6800623377 -53.9728948189 0.000851333788447 0.000851333788447 -0.000851333788447
1 10.5201640555 7.88851904014 2.63068351694 1.74334482119 -14.706808276 6.73237917892 0.000851333788447 0.000851333788447 -0.000851333788447
1 13.1552883177 7.88698467324 15.7780140392 52.7803863041 -30.0504772268 -19.9623981717 -0.000851333788446 0.000851333788447 -0.000851333788447
1 13.1529880113 5.26817804794 2.62756887398 29.7773226341 81.8832690448 -24.414050275 -0.000851333788446 0.000851333788447 -0.000851333788447
1 10.5260779461 5.26468717153 5.26026403531 60.8822512972 46.9745051788 2.74314329479 0.000851333788447 0.000851333788447 0.000851333788447
1 10.5238575477 7.89074859618 7.89126477792 38.6782670624 7.58875196949 12.750569275 0.000851333788447 0.000851333788447 0.000851333788447
1 13.1493739885 7.88619897849 5.25250371548 -6.36290483131 -37.9074246287 -74.8600545042 -0.000851333788446 0.000851333788447 0.000851333788447
1 13.1479710437 5.25694066135 7.89390934353 -20.3923528037 -30.4905961468 39.1962252178 -0.000851333788446 0.000851333788447 0.000851333788447
1 10.517232739 5.26205185103 10.5215775415 -27.569819443 20.6213004054 15.8782046589 0.000851333788447 0.000851333788447 0.000851333788447
1 10.5162239757 7.88461071828 13.1509335466 -37.6574523094 -53.7900266373 9.23267545687 0.000851333788447 0.000851333788447 -0.000851333788446
1 13.1512252111 7.88143928532 10.5267379322 12.1493206386 -85.5043560812 67.4821122143 -0.000851333788446 0.000851333788447 0.000851333788447
1 13.1472146716 5.26087828832 13.1532348644 -27.9560737778 8.88567334956 32.2458531146 -0.000851333788446 0.000851333788447 -0.000851333788446
1 10.5150695161 10.5146815201 15.7792599335 -49.2020483658 -53.0820089639 -7.50345533009 0.000851333788447 0.000851333788447 -0.000851333788447
1 10.5197074964 13.1508659355 2.6288470016 -2.82224535377 8.55656505467 -11.6327741555 0.000851333788447 -0.000851333788446 -0.000851333788447
1 13.1458350255 13.1541071364 0.00281939720834 -41.7525345287 40.9685738148 28.0911817127 -0.000851333788446 -0.000851333788446 -0.000851333788447
1 13.1479555262 10.5229077958 2.633323435 -20.5475284419 29.1807483816 33.1315595546 -0.000851333788446 0.000851333788447 -0.000851333788447
1 10.5225002971 10.5209322513 5.2631529642 25.1057610869 9.42530321647 31.6324319663 0.000851333788447 0.000851333788447 0.000851333788447
1 10.5273086116 13.1534059329 7.89277689781 73.1889059598 33.9565385098 27.8717681447 0.000851333788447 -0.000851333788446 0.000851333788447
1 13.1421754526 13.1586852828 5.26896802868 -78.3482637094 86.7500370778 89.7830764499 -0.000851333788446 -0.000851333788446 0.000851333788447
1 13.1463385573 10.520153439 7.88417720163 -36.7172168669 1.63718058828 -58.1251931772 -0.000851333788446 0.000851333788447 0.000851333788447
1 10.5244440384 10.5211219799 10.5170024338 44.5431737965 11.3225893449 -29.8728714034 0.000851333788447 0.000851333788447 0.000851333788447
1 10.5187878006 13.1543145054 13.1497042831 -12.0192039603 43.0422631383 -3.0599595935 0.000851333788447 -0.000851333788446 -0.000851333788446
1 13.1488181158 13.1525679211 10.5200470966 -11.9216324177 25.5764206142 0.573755858589 -0.000851333788446 -0.000851333788446 0.000851333788447
1 13.1504747468 10.5154606693 13.1444548384 4.64467739058 -45.2905169165 -55.5544056001 -0.000851333788446 0.000851333788447 -0.000851333788446
108
Atom. timestep:2.09530651341
1 0.0195525328591 0.0493135515267 15.7682894952 -11.9457047037 -44.1758854895 31.6204388108 -0.00857449489339 -0.0247792247504 0.00746518624698
1 15.7014306716 2.59092738785 2.58355117407 12.2393767656 -6.68421427507 -54.9145775461 0.0215754619247 0.00832587413268 -0.00624967884368
1 2.64852369085 2.66921160862 0.0648043254874 1.9505476805 32.3819338032 15.954850445 -0.00287677219324 0.00148964364593 -0.00885703988365
1 2.64038566525 0.0841341235872 2.72376730632 -16.7216379679 -10.7438645241 -43.4657824561 -0.00293661683077 -0.0161047950689 -0.0315999317329
1 0.0498620241036 0.0603023849711 5.29679563076 -14.7234067782 26.313645706 1.7073715101 -0.0147984976654 0.000801327209231 -0.00721632728277
1 15.7588515659 2.74618565427 7.88373417604 -19.638209033 27.570948294 -2.32694644478 0.000452032166673 -0.0158936896587 0.00222715296964
1 2.71985236897 2.66452668025 5.26316124959 -8.27010331394 27.4208430916 50.399832378 -0.0223892970872 0.0041639185581 0.0141684737326
1 2.5441152189 0.0996249679887 7.94378071102 26.8304848866 4.97332015569 -13.2721245573 0.0229764138977 -0.0200648259034 -0.0156540529388
1 15.7604796966 0.0155188238974 10.6105274271 -12.0345500628 -13.2137517336 13.508122885 0.00415268062352 -0.00462087798662 -0.0110377981934
1 0.0518318585034 2.53940012587 13.1924595742 -31.6152449762 63.4287341979 13.6336234299 -0.0186310651381 0.0343367083229 -0.00216292739211
1 2.63279664201 2.58381777588 10.4581852805 17.9467472431 35.1042232709 9.7245392556 0.00347296398209 0.0220073244352 0.0172661494705
1 2.65377359588 0.0508978865626 13.1528234069 67.116698023 -3.15975281845 -4.21738877937 0.0129510774131 -0.00645965723007 -0.00141850475543
1 15.7233049299 5.24048468442 15.7165786402 33.1384907816 -60.5843341452 2.09464628901 0.021040407236 -0.0105224063796 0.013031521381
1 15.7582508776 7.92445553599 2.61545655646 47.7169002812 55.160034163 -5.60383267515 0.0162433747749 0.0100954651136 -0.000728215913598
1 2.65452288674 7.84016781553 15.7236761458 -21.696559925 -37.3994811261 56.5716472324 -0.00810194799805 0.000882260064205 0.0245135512747
1 2.52678697722 5.27909749581 2.64551900118 23.9027269988 13.1085961511 -38.46121322 0.0291210857609 -0.000833594812813 -0.0130000878682
1 15.779756292 5.21538028306 5.18817831565 -18.6845859986 17.3439230102 18.2641660673 -0.00756262915322 0.0154172409399 0.0148026161673
1 15.754523004 7.93840419106 7.803466516 -31.7085796642 -35.3471994608 0.025177208947 -0.00479317412727 -0.0206858471579 0.0153383778941
1 2.6424476753 7.9625485808 5.23155008381 -12.5527930433 5.21067363542 -33.3218309859 -0.0100915642952 -0.0110592828747 -0.00487535746479
1 2.54578900319 5.29462112965 7.89014640259 -3.47069805449 32.2837764685 13.9186681715 0.0154792350075 0.00643172341632 0.0027739090324
1 0.0586005963984 5.22233941504 10.6730558945 11.5940559951 -35.7330543533 -15.032899314 -0.0105015710535 -0.00544644248057 -0.0376720843188
1 0.0152485824647 7.79665273266 13.147737082 21.7845448544 30.970392208 -15.4693641136 0.00194770644662 0.028768746518 -0.0015498917248
1 2.60132896209 8.03778036845 10.4867021431 -52.002322063 -9.09837245012 -17.581252724 -0.0116707096752 -0.0321634887092 0.00166078299179
1 2.6709710577 5.26153591668 13.127888166 3.46311080766 -20.1512482583 -4.3744437729 -0.00375825937049 -0.00500674279545 0.00520149813261
1 15.7207105007 10.4125576989 15.7162402234 11.5593978982 31.3244538557 1.26404641743 0.0161080182418 0.0327633442748 0.0130495581574
1 0.00377234915172 13.2028229612 2.68547892283 -0.0226689423213 19.6074361717 -8.86614501333 -0.0013074918031 -0.00261463548699 -0.0162425521323
1 2.64525527502 13.2527084434 15.7474065749 -31.671800345 39.0281604019 24.8794368818 -0.0131152830443 -0.0069225239777 0.014927963975
1 2.65260716705 10.6303518905 2.53587366221 -17.165489043 6.26788313397 -16.0010000007 -0.0118586654677 -0.0193873878512 0.0132388174366
1 15.7746983447 10.6091590414 5.27939804369 -32.3662671278 49.4905228324 -49.7702894129 -0.00944631748457 -0.00121767202168 -0.0193371069134
1 0.0263688395889 13.219260727 7.97055515491 -22.5825569725 17.3970827499 17.6431185671 -0.0135526573883 -0.00539533894802 -0.0106187975099
1 2.62762567931 13.2050925312 5.28156987945 -43.0001506856 10.437914108 -24.5191437928 -0.0138842324981 -0.0075952199386 -0.0124001868593
1 2.54191323497 10.6031813065 7.82878387368 -29.1470228433 2.48976754755 36.6433244155 0.00793687128139 -0.0166964170526 0.0225050807427
1 15.6721475868 10.4934524333 10.4921789721 -6.85090076746 -0.545941358406 -14.4967185852 0.0160814946543 0.0058761055057 0.00103251676283
1 0.019701107725 13.080435214 13.1449773157 4.48730665409 -16.7763761764 6.11988928223 -0.00391781804297 0.0105889260813 0.00231175996269
1 2.68825030731 13.1954734971 10.51503895 -3.26604158436 -4.90614968578 37.6995089343 -0.017469776709 -0.00991513172929 0.0153071627196
1 2.65076707971 10.4870317576 13.1579735706 -57.942695166 64.0055638227 -24.9246456422 -0.0185985114296 0.0241077495158 -0.00480376207271
1 5.28740325578 0.157751781457 0.0237354533799 -12.5662002762 39.0614994149 -27.1857112458 -0.00875606656181 -0.0156084467013 -0.0112182363344
1 5.3016597932 2.64701862236 2.7055762778 40.5869343234 59.490970564 15.9126439937 0.00365945358417 0.0151291550517 -0.0100124296078
1 7.95864008105 2.65426410132 0.025797205912 5.27643855436 37.1686579077 -24.5126786031 -0.0139904947963 0.00913582636567 -0.0129661919482
1 7.84231273118 15.7275222681 2.57439749368 31.4007959519 -7.09816702405 11.8821510409 0.0187026860081 0.0103392836156 0.0145746139372
1 5.18841012409 15.7041612321 5.30994290084 14.5954702565 28.3610288718 49.6687057754 0.018749485309 0.0253940551109 0.00194553442577
1 5.34673566105 2.64144327773 7.89209468846 -28.0099961665 -15.1156682663 -5.17899133837 -0.0253337402533 -0.00545909213997 -0.0033039883539
1 7.92213172063 2.47549613386 5.22935914473 -3.60921049956 4.14068853011 -42.9736263156 -0.00837636266916 0.0354004722671 -0.00446962031475
1 7.85800106305 15.7266955566 7.88190813536 -14.3182037864 -25.2609038569 -13.8608075017 0.00211784833922 0.00415601171812 -0.00168849528937
1 5.27587294597 15.739229363 10.4973322144 -37.8430332665 -8.05726737341 -33.8894455358 -0.0111220655726 0.00913180958029 -0.0057726552329
1 5.26805773518 2.7061738333 13.0273858478 -24.8865071019 -26.9211569001 9.37605324638 -0.00790220543847 -0.0233026374518 0.0234951622783
1 7.8778975287 2.59594633537 10.4705035392 39.2718871332 42.8386888661 -37.228080873 0.0118730869714 0.0203988936938 -0.00336510093546
1 7.83473118694 0.0963525516094 13.1141748486 20.913558202 13.9605153864 38.0510413364 0.0168042526618 -0.0138175938577 0.0157986760797
1 5.2664301018 5.20938933343 15.7130858163 31.3113293886 -4.22973994566 23.797474122 0.0104506023564 0.00987922690589 0.0212741986351
1 5.27228583628 7.88641180419 2.63328582158 -28.8485908069 -10.3609919364 -6.41562206767 -0.0120071567278 -0.00225532227577 -0.00312617281344
1 7.86640556213 7.91441057674 15.7638327987 -60.6904897509 1.25868496822 -12.9537148318 -0.0142469165592 -0.00287442707708 -0.000515417841547
1 7.91169610741 5.3361254411 2.64631058568 -7.81722643317 -12.3904545143 37.6333768191 -0.00621381731669 -0.0161688147999 0.010964146155
1 5.26333235197 5.27698470804 5.3261857811 10.5120494438 36.496565536 -6.1784247602 0.00220392990761 0.0112757217678 -0.0143590898347
1 5.19541324371 7.94410855926 7.93872848737 -20.9078605408 -17.9225840061 -24.8786468243 0.00488751890948 -0.0102177592747 -0.0203102303213
1 7.89446463353 8.00061946204 5.31647300055 -1.97096012396 19.4327535236 14.2657636778 -0.00154032627879 -0.0158509758874 -0.00676268413046
1 7.95698189534 5.20325867197 7.76436940111 23.0260490444 16.9854703462 -7.36739692199 -0.00503494219917 0.0162780895953 0.0208872615514
1 5.18284363336 5.29797763181 10.5029802449 -30.5916403992 38.3459136158 -73.9061025292 0.00636352038515 0.00401788307806 -0.0226832182595
1 5.27215707188 7.95601098573 13.1527060653 56.1881638493 -29.4712505216 -51.2036484722 0.0076249153043 -0.0196383679248 -0.0166053837
1 7.82877688452 7.85476113758 10.4555399069 -4.34439337815 26.5838902237 -21.4121965767 0.0115043512513 0.0161593619158 0.00254980805206
1 7.8495072683 5.26664759802 13.0419317951 -17.0681571532 -11.438471149 6.72170284385 0.00153167947483 -0.00523269893209 0.0221604021255
1 5.21699995495 10.5136070397 15.7352120361 25.4860715931 36.3622039021 31.1680672205 0.0135266548021 0.0124574166579 0.0130166952431
1 5.28102531773 13.2019011472 2.57733690954 -17.0288722194 -1.48851716228 -36.5275138364 -0.0118822303001 -0.00562890903587 -0.00081878226048
1 7.98622902259 13.1662298429 15.7179588275 -17.9504910541 27.793327277 4.25268090505 -0.0256910837407 0.00299619088012 0.0121104270804
1 7.80533476693 10.5744244345 2.57808669251 -9.82250454218 21.5679366399 12.4745809089 0.0143292180677 -0.00579342415851 0.013458345025
1 5.21530422343 10.5336861797 5.27656717997 -0.0789854873788 2.03808710196 -54.9464572621 0.00718208967373 0.00276202755993 -0.0188180859736
1 5.18148483258 13.0803643951 7.84151843742 -19.5747754748 46.6924419318 43.0573602915 0.0089489305502 0.0265594621312 0.0213345574185
1 7.84187428313 13.1954617895 5.3164533119 31.8033436716 -18.3234662928 -13.7123138873 0.0167157451906 -0.0162058551192 -0.016438670688
1 7.85644188951 10.5640454884 7.92818387864 35.3814924359 12.2439453403 13.0805363179 0.0150498963892 -0.00419867076286 -0.00435763673712
1 5.21462364342 10.5531144277 10.5026916086 8.9673090698 48.3166783635 38.5564700788 0.00957757433884 0.00626289467964 0.0156712334881
1 5.26825191584 13.2470849024 13.2691012412 9.99051656563 15.8976124799 -4.9455396337 0.00273316474045 -0.0142283175608 -0.024676913957
1 7.80175010196 13.1292408656 10.5026196782 -14.2579743851 -26.3694714517 14.5342511521 0.0147139995079 0.00072604289908 0.0105383260337
1 7.90382775659 10.5767033834 13.1766071704 -9.41578099122 -7.46711519739 -62.8797029268 -0.00558186139409 -0.0129373359172 -0.0245575879613
1 10.5261052765 15.7485919642 0.0286674974299 -47.618503688 9.75578128831 -28.4430520963 -0.0125119769722 0.00897064316456 -0.0126784084942
1 10.5294911276 2.66473801921 2.55205833888 -17.9359893792 40.6182910049 8.41350335156 -0.00830090469143 0.00518153084524 0.0177607457124
1 13.0791486039 2.62271291254 0.0139628220046 13.6146828033 16.4645547592 -8.43047134892 0.0166819292025 0.00168633900066 -0.00686640898004
1 13.1168127451 15.7014908636 2.5781321238 26.8019166206 -0.289462302383 25.0806500012 0.0104350625006 0.0149243945702 0.0140380956541
1 10.5213885858 0.0483872876479 5.20206071067 5.94564329806 1.50565002874 -11.2550027208 0.00338078655451 -0.0111091091976 0.00726387969821
1 10.5696034387 2.6246538592 7.83617848346 26.205775133 -23.287136521 -11.5031015311 -0.00163016346916 -0.00634539381606 0.00459302445039
1 13.1707379514 2.6572919195 5.08218318849 -31.0826917073 -6.55237486003 3.7515073479 -0.014420981259 -0.00659534598266 0.0364238520721
1 13.2650757066 0.108362029112 7.91044764039 3.43564461487 65.0140063658 13.5919128716 -0.0238181791481 -0.000688288885593 0.000825829823224
1 10.4128720804 15.7755795179 10.4721772367 12.1263045221 27.2149305042 3.80101078181 0.0256134335912 0.0107310866305 0.0124864623289
1 10.5603302902 2.62711360724 13.1859857261 -45.6509527879 -8.41457548815 -10.4703224597 -0.0260710924042 -0.00296624919461 -0.011339341055
1 13.1381126893 2.618151495 10.5721229977 -6.27303609313 2.85177991116 29.2044485705 4.53164138436e-05 0.00435559572653 0.000351175192344
1 13.0893154749 15.7396916757 13.1476603515 2.1762651811 -0.0646562154557 5.58990500473 0.0137722980275 0.00904257419215 0.00599727777614
1 10.4458175459 5.38050694917 15.7182508353 -6.3197451752 -17.4706212356 15.4639827859 0.0100084075536 -0.0267615320303 0.0160955886114
1 10.51215584 7.91478002578 2.6360011779 -12.9339906027 50.4757586979 -1.88545674676 -0.00447585148235 0.0128353554637 -6.79574343171e-05
1 13.1669864929 7.87941260969 15.7417603632 -60.0500731362 31.026120972 -14.0701741401 -0.0196064164976 0.00943821063509 0.00126715089359
1 13.1627955777 5.34649026499 2.54060062122 -30.1497027564 -28.0733314546 -57.9150740556 -0.0106598766313 -0.0223561413407 -0.000190421038805
1 10.59854574 5.30489321856 5.23945373225 -5.12306359166 -21.4587927233 -25.6066993821 -0.0156766918475 -0.0148157619223 -0.00462868100917
1 10.577434909 7.89693980636 7.91918368217 4.31984891977 -6.37541238709 9.65383535762 -0.00902166245089 -0.00463947277836 -0.0041413710362
1 13.1646459082 7.85598775187 5.18150425366 23.966555258 23.9636814544 26.7993304819 0.00331352891615 0.0151592174364 0.0213067391381
1 13.1547188026 5.22424840851 7.94633331281 30.3194581868 9.43236138768 -0.172098929457 0.00572370623964 0.0109685734569 -0.0125127210631
1 10.4657994132 5.24850803146 10.5263549087 -14.0416916341 -42.8742184351 -20.2572039269 0.00760855555047 -0.0116441542732 -0.00940708025263
1 10.4518338963 7.85758634829 13.1190571379 -18.0978545378 45.8147000721 -52.2606923084 0.00540617357432 0.0189514407597 -0.0131368575088
1 13.1707972501 7.75431320721 10.5941141076 2.57900086618 -18.9822472612 -20.7646325398 -0.00334745553794 0.0193671271863 -0.0203982077048
1 13.1018070018 5.21908040662 13.2015720076 -11.970232479 -51.1819108248 4.99977378865 0.00502542129184 -0.00418262010512 -0.00936679951887
1 10.5059981232 10.438914247 15.7695619817 53.3583106247 -2.30930037017 -0.66244343243 0.0145007291865 0.0187479556167 0.000207031335848
1 10.4732650481 13.1301905403 2.64860738584 -41.64881906 -31.451202064 34.2797609282 -0.00122207328017 -0.00429960968337 0.00492744991311
1 13.1183777415 13.1466022715 0.00610887350478 25.4685902302 -65.0934948974 -36.6736761703 0.0114946302548 -0.0194901466187 -0.0130647145364
1 13.1240642895 10.5875572731 2.68332736134 3.6437895892 28.7995881948 8.43066844144 0.00668118737515 -0.00321066793618 -0.00697443644403
1 10.5144686747 10.557540117 5.29499351506 -41.4345954306 27.7276212178 -6.94167361591 -0.0103190647146 0.00304568218625 -0.0061501808718
1 10.5811407016 13.2174956393 7.9380929335 -44.1478943629 21.001025549 10.3321883463 -0.0244287109247 -0.00663328399852 -0.00716134694497
1 13.0793673638 13.2921451975 5.37038443396 44.8829219161 21.3400979119 -16.3411861769 0.0294954796094 -0.0212766752908 -0.0246775893683