108
Atom. timestep:0
1 16.2149310825 16.2143584665 0.000176026187097 -6.90025474827 -64.161853403 17.5941122235 -0.000704518903168 -0.000704518903168 -0.000704518903168
1 2.03154940433e-06 2.70365708428 2.70247917223 0.194648565593 115.699920516 -2.09128326735 -0.000704518903168 -0.000704518903168 -0.000704518903168
1 2.70285755726 2.70242543951 16.2148145366 35.7472192978 -7.46455554564 -18.5548487929 -0.000704518903168 -0.000704518903168 -0.000704518903168
1 2.70278183736 0.000217300723844 2.70303806323 28.1752297055 21.7215658717 53.7978160064 -0.000704518903168 -0.000704518903168 -0.000704518903168
1 7.24536456248e-06 16.2146321872 5.40429604737 0.716030078071 -36.7897848194 -70.4037684705 -0.000704518903168 -0.000704518903168 -0.000704518903168
1 0.000129249364201 2.70170591305 8.10710989007 12.9164299639 -79.4172006894 -39.0024867859 -0.000704518903168 -0.000704518903168 0.000704518903168
1 2.70326560598 2.70170535188 5.404536943 76.5520912022 -79.4733179708 -46.3142063698 -0.000704518903168 -0.000704518903168 -0.000704518903168
1 2.70301439334 0.000307641377956 8.10730595825 51.4308270153 30.7556312252 -19.3956682049 -0.000704518903168 -0.000704518903168 0.000704518903168
1 16.2149507546 16.2147446974 10.8100738974 -4.93304661372 -25.5387621135 7.39824580559 -0.000704518903168 -0.000704518903168 0.000704518903168
1 16.2149885203 2.7029254931 13.5127979362 -1.15647214695 42.5408036075 29.802123588 -0.000704518903168 -0.000704518903168 0.000704518903168
1 2.70229833932 2.70202106721 10.8098900921 -20.1745739236 -47.9017855116 -10.9822859227 -0.000704518903168 -0.000704518903168 0.000704518903168
1 2.70183264921 1.04038014446e-05 13.5124237708 -66.7435853922 1.03187376426 -7.61440882128 -0.000704518903168 -0.000704518903168 0.000704518903168
1 16.2149188719 5.40468100001 16.2148124476 -8.12131881556 -31.9085050144 -18.7637428527 -0.000704518903168 -0.000704518903168 -0.000704518903168
1 0.000860730772454 8.10723025019 2.7018368026 86.064570321 -26.9664746882 -66.3282461069 -0.000704518903168 0.000704518903168 -0.000704518903168
1 2.70274439409 8.10786217419 0.000367525862094 24.4309023912 36.2259248941 36.7440796006 -0.000704518903168 0.000704518903168 -0.000704518903168
1 2.70274302317 5.4045433379 2.70219339943 24.2938105233 -45.6747158649 -30.6685636333 -0.000704518903168 -0.000704518903168 -0.000704518903168
1 16.2149231017 5.40467550803 5.40440328369 -7.6983392556 -32.4577035127 -59.6801365697 -0.000704518903168 -0.000704518903168 -0.000704518903168
1 16.2147671738 8.10732373453 8.10701738477 -23.2911268396 -17.6180401541 -48.2530163782 -0.000704518903168 0.000704518903168 0.000704518903168
1 2.70279451039 8.1073308009 5.40520692027 29.4425325081 -16.9114039619 20.683520888 -0.000704518903168 0.000704518903168 -0.000704518903168
1 2.70298383094 5.40527577578 8.10781842598 48.374587177 27.5690715514 31.8511040582 -0.000704518903168 -0.000704518903168 0.000704518903168
1 16.2144870565 5.40442240421 10.8097335786 -51.3028539456 -57.7680851906 -26.6336363678 -0.000704518903168 -0.000704518903168 0.000704518903168
1 16.2142930332 8.10739137832 13.5131209856 -70.7051908065 -10.8536619308 62.1070643666 -0.000704518903168 0.000704518903168 0.000704518903168
1 2.70243373333 8.10740653722 10.8101852231 -6.63517361208 -9.3377714594 18.5308156538 -0.000704518903168 0.000704518903168 0.000704518903168
1 2.70260242769 5.40592972752 13.5120656238 10.2342621884 92.9642447429 -43.429109108 -0.000704518903168 -0.000704518903168 0.000704518903168
1 16.2148148492 10.8095587216 16.2146762324 -18.5235853144 -44.119332396 -32.3852618937 -0.000704518903168 0.000704518903168 -0.000704518903168
1 16.2147875027 13.5127340844 2.70224755303 -21.2582363141 23.4169441729 -25.2532035859 -0.000704518903168 0.000704518903168 -0.000704518903168
1 2.70263971805 13.5119834237 0.000183049326558 13.96329857 -51.6491250725 18.2964261651 -0.000704518903168 0.000704518903168 -0.000704518903168
1 2.70297699744 10.8102085399 2.70271410829 47.6912371553 20.8624929778 21.4023222708 -0.000704518903168 0.000704518903168 -0.000704518903168
1 0.00064799568307 10.8096561561 5.40399163158 64.7910615187 -34.3758800352 -100.845347895 -0.000704518903168 0.000704518903168 -0.000704518903168
1 2.85419927443e-05 13.5122863488 8.10787774931 2.84569288263 -21.3566085732 37.783437422 -0.000704518903168 0.000704518903168 0.000704518903168
1 2.70266279852 13.5125520814 5.40552464235 16.271345086 5.21664350836 52.4557278805 -0.000704518903168 0.000704518903168 -0.000704518903168
1 2.70276503961 10.8095551767 8.10703834925 26.4954549241 -44.4738193964 -46.1565685631 -0.000704518903168 0.000704518903168 0.000704518903168
1 5.33761842974e-05 10.810060728 10.8098794047 5.32911202204 6.08130759638 -12.0510254912 -0.000704518903168 0.000704518903168 0.000704518903168
1 16.2149787147 13.5127302225 13.5125670983 -2.137034437 23.0307588101 6.71833379358 -0.000704518903168 0.000704518903168 0.000704518903168
1 2.70261446346 13.5129356341 10.8094683427 11.4378394483 43.571915782 -53.1572207174 -0.000704518903168 0.000704518903168 0.000704518903168
1 2.70299014885 10.8102077856 13.5125929114 49.0063779183 20.7870648944 9.2996498401 -0.000704518903168 0.000704518903168 0.000704518903168
1 5.40515215975 0.000213081011483 16.2147955171 15.2074687575 21.2995946384 -20.4568007422 -0.000704518903168 -0.000704518903168 -0.000704518903168
1 5.40493582423 2.70287388742 2.70185057872 -6.42608336439 37.3802351297 -64.9506344312 -0.000704518903168 -0.000704518903168 -0.000704518903168
1 8.10688086499 2.70303365264 16.2143148436 -61.9049943281 53.3567577693 -68.5241453071 0.000704518903168 -0.000704518903168 -0.000704518903168
1 8.10778565734 16.2146358389 2.70272369036 28.5742403975 -36.424614117 22.3605293389 0.000704518903168 -0.000704518903168 -0.000704518903168
1 5.40485154259 0.000265267365342 5.40511550103 -14.8542476866 26.5182299909 11.5415961149 -0.000704518903168 -0.000704518903168 -0.000704518903168
1 5.40457750698 2.70287769314 8.10763690916 -42.2578078727 37.7608069589 13.6994218291 -0.000704518903168 -0.000704518903168 0.000704518903168
1 8.10694995843 2.7026366921 5.40552778402 -54.995650683 13.6607036236 52.7698955503 0.000704518903168 -0.000704518903168 -0.000704518903168
1 8.10720929868 16.2140803578 8.10757072214 -29.0616257106 -91.9727284933 7.08071998781 0.000704518903168 -0.000704518903168 0.000704518903168
1 5.40516081532 0.000338161979823 10.8102410611 16.0730258412 33.8076913923 24.1146203167 -0.000704518903168 -0.000704518903168 0.000704518903168
1 5.40484666487 2.70221513569 13.5121124019 -15.3420187796 -28.494937214 -38.7513001583 -0.000704518903168 -0.000704518903168 0.000704518903168
1 8.10795715202 2.7030574784 10.8102597995 45.7237077425 55.7393336741 25.9884556972 0.000704518903168 -0.000704518903168 0.000704518903168
1 8.10740975008 16.2144352725 13.512246698 -9.01648567076 -56.4812540144 -25.3216967836 0.000704518903168 -0.000704518903168 0.000704518903168
1 5.40523608249 5.40511785133 0.000147704150272 23.5997425887 11.7766261394 14.7619085591 -0.000704518903168 -0.000704518903168 -0.000704518903168
1 5.4047242107 8.10725574065 2.70259094591 -27.5874362174 -24.4174281686 9.08608485367 -0.000704518903168 0.000704518903168 -0.000704518903168
1 8.10826175912 8.10803196948 0.000127298656371 76.1844175134 53.2054541686 12.7213591821 0.000704518903168 0.000704518903168 -0.000704518903168
1 8.10702490124 5.40499132035 2.7026732457 -47.5013689908 -0.876471291957 17.3160637466 0.000704518903168 -0.000704518903168 -0.000704518903168
1 5.40508790763 5.40512315516 5.4049228584 8.78225705574 12.3070090628 -7.72266597113 -0.000704518903168 -0.000704518903168 -0.000704518903168
1 5.40449972724 8.10707886043 8.10687870852 -50.035781785 -42.10545071 -62.1206407485 -0.000704518903168 0.000704518903168 0.000704518903168
1 8.10758350547 8.10720271337 5.40504406998 8.35905328427 -29.7201563798 4.39849208498 0.000704518903168 0.000704518903168 -0.000704518903168
1 8.10687746012 5.40552113866 8.10731678015 -62.2454813734 52.105359141 -18.3134786311 0.000704518903168 -0.000704518903168 0.000704518903168
1 5.40504700345 5.40500190252 10.8095106177 4.6918383768 0.181745504916 -48.9297257884 -0.000704518903168 -0.000704518903168 0.000704518903168
1 5.4045654554 8.10809453197 13.5129672964 -43.4629657364 59.4617025608 46.7381476694 -0.000704518903168 0.000704518903168 0.000704518903168
1 8.10796481891 8.10764466932 10.8101626147 46.4903967066 14.4754382091 16.269976864 0.000704518903168 0.000704518903168 0.000704518903168
1 8.1079114441 5.40501192918 13.512003587 41.1529158809 1.1844112867 -49.6327942608 0.000704518903168 -0.000704518903168 0.000704518903168
1 5.40552106309 10.8088228545 1.39184517802e-05 52.0978020303 -117.706041797 1.38333879557 -0.000704518903168 0.000704518903168 -0.000704518903168
1 5.40505607307 13.5129371604 2.70201760514 5.59880100534 43.7245448234 -48.2479918175 -0.000704518903168 0.000704518903168 -0.000704518903168
1 8.10665373305 13.5129480687 16.214492864 -84.6181881882 44.8153735135 -50.7221110359 0.000704518903168 0.000704518903168 -0.000704518903168
1 8.1077052078 10.8090147148 2.70240509134 20.5292866592 -98.5200121775 -9.49937214431 0.000704518903168 0.000704518903168 -0.000704518903168
1 5.40523602953 10.8102943454 5.40553636426 23.5944461952 29.443044429 53.6279196244 -0.000704518903168 0.000704518903168 -0.000704518903168
1 5.40506418668 13.5125864388 8.1082487023 6.41016114404 8.6523905137 74.8787355078 -0.000704518903168 0.000704518903168 0.000704518903168
1 8.10678160543 13.5130508354 5.40503025251 -71.8309504993 55.0920463385 3.01674479858 0.000704518903168 0.000704518903168 -0.000704518903168
1 8.10758324733 10.8103870709 8.10807052613 8.33323947977 38.7155936185 57.0611191706 0.000704518903168 0.000704518903168 0.000704518903168
1 5.40447614532 10.8100645773 10.80991431 -52.3939740244 6.46623759555 -8.56049234742 -0.000704518903168 0.000704518903168 0.000704518903168
1 5.40528353699 13.5113656175 13.5121480335 28.345192017 -113.429745066 -35.1881389126 -0.000704518903168 0.000704518903168 0.000704518903168
1 8.10799777293 13.5117876552 10.8103254881 49.7857986189 -71.2259715369 32.557313449 0.000704518903168 0.000704518903168 0.000704518903168
1 8.10776463769 10.8099324259 13.5134153305 26.4722750775 -6.74890734578 91.541553189 0.000704518903168 0.000704518903168 0.000704518903168
1 10.8100480519 16.2141258001 16.2149468969 4.81370097283 -87.4284919993 -5.31882122343 0.000704518903168 -0.000704518903168 -0.000704518903168
1 10.8100360133 2.70200053057 2.70215226545 3.609839635 -49.9554494181 -34.7819607903 0.000704518903168 -0.000704518903168 -0.000704518903168
1 13.5127809198 2.70290925626 16.2140831597 28.1004863715 40.9171197574 -91.6925335296 0.000704518903168 -0.000704518903168 -0.000704518903168
1 13.512759972 0.000149012125364 2.70337106898 26.005706748 14.8927060675 87.0983914585 0.000704518903168 -0.000704518903168 -0.000704518903168
1 10.809646101 0.000160689509383 5.40584773932 -35.3813907456 16.0604444619 84.7654250986 0.000704518903168 -0.000704518903168 -0.000704518903168
1 10.810593187 2.70294870035 8.10703857643 59.3272065358 44.8615281081 -46.133850812 0.000704518903168 -0.000704518903168 0.000704518903168
1 13.5123743049 2.70255226115 5.40471331053 -12.5610033314 5.21760874293 -28.6774531692 0.000704518903168 -0.000704518903168 -0.000704518903168
1 13.5127493594 0.00110905764332 8.10777830262 24.944444631 110.897257248 27.8387685507 0.000704518903168 -0.000704518903168 0.000704518903168
1 10.8098878593 0.000289849312004 10.8090790229 -11.2055604661 28.9764246414 -92.0892072929 0.000704518903168 -0.000704518903168 0.000704518903168
1 10.8104706364 2.7028200374 13.5125503124 47.0721414773 31.9952333564 5.03974226975 0.000704518903168 -0.000704518903168 0.000704518903168
1 13.5125360677 2.70215116826 10.809704148 3.6152744165 -34.89168019 -29.5766915937 0.000704518903168 -0.000704518903168 0.000704518903168
1 13.5125853357 16.2148423501 13.5122958924 8.54207543583 -15.7734929795 -20.4022523045 0.000704518903168 -0.000704518903168 0.000704518903168
1 10.8095826731 5.4046207837 16.2144557606 -41.7241834221 -37.9301357626 -54.4324455726 0.000704518903168 -0.000704518903168 -0.000704518903168
1 10.8103554463 8.10790858498 2.7023255263 35.5531345246 40.8670040865 -17.4558757669 0.000704518903168 0.000704518903168 -0.000704518903168
1 13.5130588614 8.10772785775 3.38671639232e-05 55.8946457738 22.7942812902 3.37820999711 0.000704518903168 0.000704518903168 -0.000704518903168
1 13.5116656996 5.4046622131 2.70249910925 -83.4215353148 -33.7871963987 -0.0975816925988 0.000704518903168 -0.000704518903168 -0.000704518903168
1 10.8107560832 5.40441442614 5.40582681085 75.6168293248 -58.565892201 82.6725777728 0.000704518903168 -0.000704518903168 -0.000704518903168
1 10.8098639397 8.10746907672 8.10700595067 -13.5975271269 -3.083821732 -49.3964262326 0.000704518903168 0.000704518903168 0.000704518903168
1 13.5121751346 8.10811189333 5.40581775835 -32.4780333643 61.1978394587 81.7673281781 0.000704518903168 0.000704518903168 -0.000704518903168
1 13.5132661316 5.40550902138 8.10784661583 76.6216627671 50.8936309433 34.6700891447 0.000704518903168 -0.000704518903168 0.000704518903168
1 10.8094440224 5.40520312257 10.8104073262 -55.5892513842 20.3037509171 40.7411302899 0.000704518903168 -0.000704518903168 0.000704518903168
1 10.8096167453 8.10753853731 13.5124588846 -38.3169608621 3.86223759773 -4.10303341208 0.000704518903168 0.000704518903168 0.000704518903168
1 13.5118089805 8.10707542877 10.8103691788 -69.0934448247 -42.4486162733 36.9263843547 0.000704518903168 0.000704518903168 0.000704518903168
1 13.5122206514 5.4047457622 13.5123007755 -27.9263568161 -25.4322864653 -19.9139409999 0.000704518903168 -0.000704518903168 0.000704518903168
1 10.8102751139 10.8103538673 0.000589386714839 27.5198922494 35.3952409593 58.9301647332 0.000704518903168 0.000704518903168 -0.000704518903168
1 10.8097969128 13.5133132091 2.70190545763 -20.3002156129 81.3294186213 -59.4627433191 0.000704518903168 0.000704518903168 -0.000704518903168
1 13.5122209615 13.5120216418 16.214497881 -27.8953453292 -47.8273175644 -50.220410477 0.000704518903168 0.000704518903168 -0.000704518903168
1 13.5119094714 10.8102171392 2.7029529164 -59.0443566788 21.7224220448 45.2831335839 0.000704518903168 0.000704518903168 -0.000704518903168
1 10.8103821908 10.8101266264 5.40466119663 38.2275880417 12.6711427143 -33.8888432193 0.000704518903168 0.000704518903168 -0.000704518903168
1 10.8102140491 13.512991813 8.10722652316 21.4134141393 49.1898058626 -27.3391771765 0.000704518903168 0.000704518903168 0.000704518903168
1 13.5123359898 13.5120296097 5.40547408118 -16.3925115468 -47.0305250234 47.3996109384 0.000704518903168 0.000704518903168 -0.000704518903168
1 13.5129605466 10.8105178618 8.10849627016 46.0631663358 51.7946816946 99.6355214434 0.000704518903168 0.000704518903168 0.000704518903168
1 10.8105199515 10.8094788896 10.8099219335 52.0036545098 -52.1025301311 -7.79814811242 0.000704518903168 0.000704518903168 0.000704518903168
1 10.8100566392 13.5128338266 13.5128507792 5.67242240734 33.3911613043 35.0864240559 0.000704518903168 0.000704518903168 0.000704518903168
1 13.5115657727 13.512344297 10.8104024878 -93.414224377 -15.5617951719 40.2572840509 0.000704518903168 0.000704518903168 0.000704518903168
1 13.512642966 10.8099311093 13.5125413915 14.3051049375 -6.88056082561 4.14765984704 0.000704518903168 0.000704518903168 0.000704518903168
108
Atom. timestep:0.997765006386
1 16.2081597188 16.1553230022 0.0188780457174 -6.72611168327 -48.4757259518 20.369033326 -2.4644654785e-05 0.0127084374804 0.001416379568
1 0.000425156520475 2.81029878719 2.69809659813 0.385533550991 87.9415095074 -9.01331612736 -0.000392647458264 -0.0230204179845 -0.00561061954081
1 2.73594524578 2.6950935602 16.1951357975 27.5346614798 -6.89535637361 -21.7589068234 -0.00670919498243 0.000657024902575 -0.00236320575132
1 2.72937570208 0.0200924557166 2.75096279537 23.1820252556 15.5864192967 35.4115783152 -0.00409114417113 -0.00572480100727 -0.015588578264
1 0.00166099390459 16.178968898 5.33885298824 3.5532284222 -32.6892246528 -54.7224755193 0.0025616387433 0.00394031602607 0.0134187491204
1 0.0158982137812 2.62755449265 8.06662711897 21.1352386169 -62.972161828 -42.7446550248 0.00637502668332 0.013888872856 -0.00223579279106
1 2.77505201963 2.62992121497 5.36068331826 61.5056797725 -55.7926237722 -38.3318091197 -0.0128616133411 0.0198188269571 0.00692378801907
1 2.75109570131 0.0287773867484 8.08877011259 41.3498588147 23.3700511808 -16.3869573339 -0.00798089100742 -0.00635683528185 0.00290330503078
1 16.2093817671 16.1896179492 10.8168871234 -6.86976947257 -23.7662205018 5.45267991307 -0.00159147693899 0.00196259031852 -0.00179106870077
1 0.000405351220462 2.742748286 13.5396460311 3.66980026298 33.7513725086 20.3731971519 0.00405858628326 -0.00761767948154 -0.00822161971335
1 2.6811757814 2.65747460426 10.8002808602 -22.5700646545 -37.4558567568 -6.97808571905 -0.00149539839834 0.00858133262857 0.00304777369877
1 2.63957809659 16.2137598758 13.5062990018 -52.9986425304 -5.27891458249 -3.26513503667 0.0111165805883 -0.00433324660152 0.00333850065834
1 16.2086412734 5.37621372769 16.196619018 -2.60170701132 -21.4064399263 -17.1832999668 0.00438293531196 0.00871656661059 0.00111841669285
1 0.0811254335518 8.07991065269 2.63992597777 68.8447576658 -27.7562708874 -52.6925176553 -0.0133746906133 -0.000338810396025 0.0112194848039
1 2.72503128543 8.14160725765 0.0346308442121 18.2972800625 28.1893835179 28.6419931881 -0.00450820289964 -0.00685628509131 -0.00725643216714
1 2.72711924102 5.36163108225 2.67262111476 24.5225147535 -37.0508702722 -27.006297057 0.000161082309542 0.00728368068136 0.0031475451584
1 16.2092305884 5.37475152153 5.34834602515 -2.22784235817 -24.1171775458 -47.9525619035 0.00373477230232 0.00763686819925 0.0103126436921
1 16.1944078757 8.09157609446 8.06199578556 -13.9204653144 -11.6231397292 -38.3216308021 0.00828148461422 0.00531361296029 0.00807575881012
1 2.72972356554 8.08892762353 5.42174594138 21.8958245248 -20.9160413398 8.20783915287 -0.00623408832641 -0.00271944832051 -0.0100905606058
1 2.74411729794 5.4287136264 8.13666110341 26.877621705 15.3633060686 22.7851914407 -0.0169711550964 -0.00941003084038 -0.00709238415177
1 16.167525373 5.34942194184 10.7849644708 -37.800177105 -49.093447586 -20.692864837 0.011500864242 0.00717845310118 0.00532016695801
1 16.1485841526 8.0962763465 13.5691230956 -55.2248279423 -11.9642334309 43.5250148138 0.0128717501897 -0.00128547887591 -0.0152290591077
1 2.69325730562 8.09962779135 10.827391458 -13.8212061329 -4.29313918384 13.8538673398 -0.00514593206305 0.0044889038973 -0.00457607982474
1 2.71249990821 5.49344853037 13.4713617532 8.84461607346 76.0581985846 -35.0238126787 -0.00151326742997 -0.0141542746886 0.00712051214892
1 16.1982439421 10.7700482793 16.1860861831 -12.220986507 -29.8052705111 -21.2464751275 0.00552031075947 0.0119254660545 0.00863090872823
1 16.1947454946 13.5323757244 2.67736368673 -17.6417510991 11.5905769874 -23.6938223702 0.00289250140175 -0.00995072314342 0.00169599988367
1 2.71796615571 13.4620933291 0.0169499592581 17.4006003913 -45.725227311 13.6521565281 0.00199287123757 0.00533396460751 -0.00384036535521
1 2.7511687537 10.8311675764 2.72349281975 48.6955022516 20.9611401995 19.0298445578 0.000534698425033 -0.000245540183054 -0.00231564991177
1 0.0619423320164 10.7774398274 5.3081339718 53.8765144104 -28.1042004623 -85.6223282059 -0.00906182665703 0.00476956920975 0.0123509016512
1 0.00252848611617 13.4937840392 8.14304542247 2.12228062471 -12.9326093114 29.3851551154 -0.000197553005449 0.00663588640451 -0.00714824245554
1 2.71909152561 13.5178903997 5.45586168334 16.7298776441 5.47987777316 45.6383112064 0.000359028527625 0.000103551264577 -0.00582347060423
1 2.72602597633 10.7673000476 8.06371566676 16.810775966 -37.8012999436 -37.1411064079 -0.00779373991399 0.0054779155639 0.00765274580511
1 0.00638843159488 10.8145299773 10.8012783292 8.93555866043 1.27873747802 -1.77503287133 0.00345807135887 -0.0036908616559 0.00823701947064
1 16.2132988941 13.5321451358 13.5175989477 -0.8124710836 11.9703003767 1.93832970656 0.000907746142535 -0.00902065260402 -0.00348978513495
1 2.71304293849 13.5543850216 10.7594048001 8.43005266956 36.9469280901 -43.2043354903 -0.00242712310849 -0.00554347956109 0.0087106884755
1 2.74573569704 10.829800103 13.5208112778 30.0142354166 17.0680773799 6.47376818348 -0.0154027116295 -0.0032254233882 -0.0018146382579
1 5.41778321788 0.0198986589889 16.1926744022 7.44708393419 16.9011645072 -24.6601553147 -0.00620097265164 -0.00299646570139 -0.00263257880789
1 5.40176561911 2.73680054934 2.64010521232 3.04744624121 26.4290234093 -54.7759198701 0.00728196384957 -0.00930182568481 0.00859770353149
1 8.04945943892 2.75120539632 16.1474736708 -48.2260987704 37.7305746338 -62.9829371105 0.0110181504999 -0.0123248216406 0.00472069767373
1 8.13347886879 16.1841327027 2.72291242237 19.2112915223 -18.4735943193 16.1412805802 -0.00824046008864 0.0143959615449 -0.00473762578814
1 5.39285239029 0.025257101779 5.41631968716 -5.81787110303 21.0897642975 9.99104542626 0.00786876177759 -0.00531754959949 -0.0016632568775
1 5.3661654288 2.73840955429 8.12241572014 -30.5718238127 30.7381259196 16.4077350778 0.00932775204804 -0.00587447321532 0.00158418914182
1 8.0542343958 2.71505551359 5.45626285647 -47.4464799734 9.95198597452 46.2108271586 0.00671616384723 -0.00286901188016 -0.00551325327177
1 8.07708918505 16.1300877415 8.11770735651 -31.4690572286 -68.2030524018 15.3971601062 -0.00124498226504 0.0186267973741 0.00588264346416
1 5.4221713466 0.0316399834922 10.8343158017 18.1844981191 26.0444025449 23.1579424483 0.00085520001544 -0.00644554131507 -0.00167218479808
1 5.38889693772 2.67754547326 13.4735906873 -16.8315538229 -17.0501363274 -37.5859572314 -0.000886341650989 0.00912222512982 0.00140083701925
1 8.15208914792 2.75479246723 10.832347205 39.9792198453 43.0956033499 14.1480143589 -0.00563335672252 -0.0106905109749 -0.00939722692912
1 8.09974236871 16.1622686324 13.4856694164 -4.70423720074 -43.0610423706 -28.423924312 0.00350930545358 0.0111021116764 -0.00189161052078
1 5.42811474311 5.41947623511 0.0101424215627 21.0526326143 19.5636079323 0.497713560316 -0.0024978411651 0.00627470044532 -0.0111289551288
1 5.37942897287 8.08366873177 2.71319054303 -20.9465044637 -21.8119359128 13.4843644926 0.00521177175782 0.00215821491323 0.00337793216412
1 8.18143485988 8.15397873075 0.0125256963563 66.9848052375 30.8202915478 11.617722128 -0.00744005103195 -0.0185460418407 -0.000914181683217
1 8.06591924561 5.40395943589 2.71979634288 -28.442651727 -0.933901890357 16.39161475 0.0148710804301 0.000176567220013 -0.0012210179527
1 5.41134045929 5.41480935109 5.3962168861 1.13076946693 4.58318086848 -10.6342373605 -0.00612285673713 -0.00610958143744 -0.0022017596196
1 5.35975164023 8.0698026082 8.04985000801 -34.1807377927 -27.3926723308 -46.5010745196 0.0126625603355 0.0119721495196 0.0127481977567
1 8.11717383725 8.07988623589 5.40879263806 11.5330330583 -22.4960825024 2.26594477626 0.00196471058922 0.00579014009889 -0.00195508665004
1 8.04887424748 5.45477308513 8.09089636785 -48.9509520725 43.2164871867 -12.7045408283 0.011192784429 -0.00742634099387 0.00444041937623
1 5.41039096039 5.40677678162 10.7658835895 6.40773655555 4.9070570581 -32.8505498412 0.00109560707362 0.00370747015248 0.0130096324341
1 5.36725807698 8.16274604687 13.5551927896 -25.2453115014 44.447602719 32.82688071 0.0142204845807 -0.0125416549417 -0.0117351022902
1 8.14850966327 8.12389066634 10.8254034237 28.6788416257 19.6407482725 12.8255078927 -0.0139659195045 0.00392101787674 -0.00306051517878
1 8.1425562544 5.40877661567 13.4654856391 21.3861660293 8.66044334701 -39.4862189612 -0.0159042901967 0.00562318894523 0.00891862915483
1 5.4554964126 10.6992093639 0.0049061908133 45.2626179654 -92.5666978664 11.9036669967 -0.00569184822361 0.0212518989061 0.00854410909226
1 5.41102984728 13.5530372997 2.6564348937 6.39976219095 32.8115219795 -39.8251339666 0.000299281368038 -0.00848740058951 0.00723742436121
1 8.02571680183 13.5532144858 16.1676428087 -72.7015253578 31.0351272988 -38.6655374034 0.0105516185949 -0.0109242417985 0.00998873004732
1 8.12642477597 10.71933969 2.69506802125 14.8528557132 -72.1637687675 -2.25959514849 -0.0047414766714 0.0207079828864 0.00653048965872
1 5.43003320569 10.8385981569 5.45552713479 26.768707569 25.963436478 42.6269027756 0.00210628314942 -0.00297201600561 -0.00876954708893
1 5.41093125742 13.5207060171 8.18079408054 4.82367762671 6.9695279707 67.0130058209 -0.00115727778661 -0.00163006568121 -0.00719470940874
1 8.03883930638 13.5626750083 5.40668406218 -59.7592519561 38.543332021 -0.744120601646 0.00997313948202 -0.0131273599557 -0.002568126802
1 8.11686099274 10.8462338573 8.16110981977 10.6235604812 30.1079068605 44.7413987532 0.00138457897939 -0.00686798628132 -0.0100954921292
1 5.35605589157 10.8123978313 10.8006418287 -40.7452470228 -5.56574604793 -11.0950411589 0.00893283270695 -0.00929342561205 -0.00251624444579
1 5.43056771612 13.4050427335 13.4780668659 19.1454483314 -91.8316764835 -31.4497639109 -0.00706710410368 0.0175404560462 0.00326407440567
1 8.15785025855 13.4422146702 10.8433708821 49.275611953 -65.4580867395 33.3936139307 -0.00103603323384 0.00540371897318 0.000132149056797
1 8.13608964004 10.8028023683 13.5988122179 31.2865034583 -7.44286949881 72.8181376573 0.00323716563176 -9.20571265422e-05 -0.0151682919631
1 10.8145046185 16.1355544053 16.2082065926 4.22021437715 -60.527255206 -9.66517613651 -0.000152085662131 0.0218977321425 -0.0037467696134
1 10.8097496608 2.65308655866 2.66746270771 -6.73863481096 -46.4593789153 -34.0441597655 -0.00693297236692 0.00316240133047 0.00100143296694
1 13.5393777066 2.73854624993 16.1293721264 22.8938206066 24.990328886 -70.220372184 -0.00481970974325 -0.0125750887492 0.017779913434
1 13.5367458354 0.0144287302422 2.7839829332 19.0207532615 12.8876887227 67.421808991 -0.0066504742842 -0.00198175603572 -0.015913531696
1 10.775653396 0.0163674107099 5.48633135381 -30.5923323813 16.5669005602 71.2229809256 0.00426520125597 0.000628050119702 -0.011592027188
1 10.8645253375 2.74816686318 8.06640370055 43.3740858741 44.9146510252 -29.4855815753 -0.0123053532156 -0.00123577572383 0.0139146676969
1 13.5025166502 2.70691440553 5.37745407928 -4.33527958556 2.82160799413 -23.94103938 0.00675921093138 -0.00185421190936 0.00413300936522
1 13.53851498 0.10249866901 8.13233222975 26.054588363 81.7814642318 17.0999026828 -0.000617611235644 -0.0241121699692 -0.00955091360123
1 10.797570434 0.0295005033842 10.7222832782 -14.1009287158 29.05672584 -75.910621707 -0.00186742100728 -0.000496151422793 0.0131151485295
1 10.8543927807 2.72836464983 13.5159358106 37.050348368 12.8560358114 0.0531900213127 -0.00867848774846 -0.0149261265492 -0.00423064813326
1 13.5156926614 2.67066067353 10.7828909228 2.41107858008 -24.2622942789 -20.7557661497 -0.000747495870648 0.00901242758318 0.00774071718977
1 13.5202530148 16.2006157403 13.4922878346 6.14691239514 -10.8576556159 -19.0273859999 -0.00167976042303 0.00412520251883 0.00141061661037
1 10.7694441573 5.37036355819 16.1638557226 -36.3221925867 -27.0763879896 -42.442678876 0.00488631629741 0.00832093990317 0.00996969681507
1 10.8453955287 8.14227886576 2.68678129659 33.8702622949 21.5227456196 -11.3467936544 -0.00148455154627 -0.0149557336174 0.00518190374798
1 13.5627508559 8.12771184175 0.00475944885813 36.6923716107 13.9735996921 7.6851997715 -0.0161669653254 -0.00726653333083 0.00391110704878
1 13.4309869147 5.37555441805 2.70083834233 -74.6260336327 -20.4499600181 -4.86832556774 0.00757550902406 0.00963750481956 -0.00396967642553
1 10.8808105388 5.34993044463 5.48229359533 58.8432128705 -45.2227322533 63.7490935727 -0.0134720093017 0.0121254418458 -0.0155287120062
1 10.7961497539 8.10510468557 8.06147260008 -13.4226202795 -0.80205577804 -37.4894632198 0.000435367330549 0.00190646089715 0.0100019205534
1 13.4835974864 8.16651346475 5.48133938547 -21.050815994 52.6439936381 63.0998697466 0.00867381287747 -0.006865766748 -0.0147038436724
1 13.5860384006 5.45203317832 8.14129059866 63.9570794116 37.2253161126 29.7643041904 -0.0115040952966 -0.0115176885161 -0.00542400229744
1 10.7585060106 5.42402993151 10.8451358601 -40.9097946054 16.1272138639 22.4460195719 0.0125128440749 -0.00297009096665 -0.0147842023105
1 10.7753035465 8.11270046231 13.5118949425 -25.7354610331 7.2668017073 6.33858257249 0.0105588880426 0.00215830500591 0.00799035589922
1 13.4471759105 8.06621405548 10.8457473452 -55.1657560589 -37.3037149802 31.8649216839 0.0116862140934 0.00442661002847 -0.00444140015721
1 13.4847628194 5.38221901627 13.4924443692 -25.9849220282 -16.3805254668 -19.7707086908 0.00213949914282 0.00755909813889 0.000115815567738
1 10.8366122238 10.8452692318 0.0556136646572 23.7250334714 33.7553665968 46.9963579099 -0.00343761709559 -0.00169045091382 -0.00967733246182
1 10.7887867746 13.5899366059 2.64846502937 -21.0678962817 66.135303521 -40.9721666135 0.000887380066562 -0.0134782576288 0.0153662246223
1 13.4875624992 13.4665194899 16.1679224748 -17.452303938 -40.2878579647 -38.8445312495 0.00911746174578 0.00662462579624 0.00939608091551
1 13.4589345261 10.8314507605 2.74536950133 -40.3828236578 20.5930896244 35.9413401458 0.0153245843241 -0.000481666294994 -0.00815330043711
1 10.8425209444 10.8252383008 5.3744712441 19.7202982324 19.6840875685 -22.3494850435 -0.0151679857564 0.00503383766117 0.00959693599304
1 10.8305762952 13.5577216827 8.08166516516 18.3068675489 35.6431506554 -21.7757319743 -0.00257578687886 -0.0110982051459 0.00488020567705