108
Atom. timestep:0
1 0.0035339068064 0.000714464895739 0.000363793575096 353.382172005 71.4379827431 36.3708509032 -0.000704518903168 -0.000704518903168 -0.000704518903168
1 0.00107707008449 2.70374033317 2.70356180181 107.698501386 124.024809756 106.171674351 -0.000704518903168 -0.000704518903168 -0.000704518903168
1 2.70221371421 2.70231941834 6.75924537998e-05 -28.6370854348 -18.0666724202 6.75073896318 -0.000704518903168 -0.000704518903168 -0.000704518903168
1 2.70277440526 0.00177736449059 2.6990361844 27.4320189915 177.727941548 -346.390063784 -0.000704518903168 -0.000704518903168 -0.000704518903168
1 0.00243854125622 0.00118153488625 5.40255823263 243.845617688 118.144981495 -244.18524189 -0.000704518903168 -0.000704518903168 -0.000704518903168
1 16.2140893065 2.70214647384 8.10813558728 -91.0778525349 -35.3611219218 63.5672339982 -0.000704518903168 -0.000704518903168 0.000704518903168
1 2.70101821256 2.70327519309 5.40405064539 -148.187249203 77.5108019091 -94.943966617 -0.000704518903168 -0.000704518903168 -0.000704518903168
1 2.70190712151 0.00207136169128 8.10715769014 -59.2963553924 207.127661429 -34.2224793648 -0.000704518903168 -0.000704518903168 0.000704518903168
1 0.000545264553653 16.212375723 10.8118704506 54.5179486428 -262.436208454 187.05356838 -0.000704518903168 -0.000704518903168 0.000704518903168
1 0.00111790553785 2.70260692721 13.5123669597 111.782046696 10.6842149611 -13.295518952 -0.000704518903168 -0.000704518903168 0.000704518903168
1 2.70327446695 2.70489352498 10.8122239229 77.4381885845 239.343989926 222.400792313 -0.000704518903168 -0.000704518903168 0.000704518903168
1 2.70399189025 16.2145375852 13.5131071335 149.180517966 -46.2499885372 60.7218517816 -0.000704518903168 -0.000704518903168 0.000704518903168
1 16.2139585205 5.40479931241 16.2141412917 -104.15645716 -20.0772651821 -85.8793324107 -0.000704518903168 -0.000704518903168 -0.000704518903168
1 0.00013858711422 8.10643938914 2.7028124829 13.8502049598 -106.052578786 31.2397833976 -0.000704518903168 0.000704518903168 -0.000704518903168
1 2.70120830254 8.10783627897 16.2132551614 -129.178252029 33.6364029372 -174.492360813 -0.000704518903168 0.000704518903168 -0.000704518903168
1 2.70392447538 5.401158488 2.70248715813 142.439030618 -384.159704173 -1.29269332969 -0.000704518903168 -0.000704518903168 -0.000704518903168
1 0.000317514305661 5.40628986521 5.40352201712 31.7429239893 128.978013348 -147.806792969 -0.000704518903168 -0.000704518903168 -0.000704518903168
1 0.00011613952788 8.10784109088 8.10853254274 11.6054463401 34.1175944993 103.262779747 -0.000704518903168 0.000704518903168 0.000704518903168
1 2.70224886022 8.10730020344 5.40632716045 -25.1224843282 -19.9711496058 132.707537819 -0.000704518903168 0.000704518903168 -0.000704518903168
1 2.70280657339 5.40396461526 8.10808797534 30.6488319702 -103.546979369 58.8060403915 -0.000704518903168 -0.000704518903168 0.000704518903168
1 16.213295053 5.4036769807 10.8118102523 -170.503207667 -132.310435605 181.033734403 -0.000704518903168 -0.000704518903168 0.000704518903168
1 0.0004161851487 8.10731672008 13.5115358738 41.6100082301 -18.3194859257 -96.4041112381 -0.000704518903168 0.000704518903168 0.000704518903168
1 2.70070412987 8.10858586414 10.8108475527 -179.595517846 108.594919781 84.7637760639 -0.000704518903168 0.000704518903168 0.000704518903168
1 2.7031283671 5.40305238762 13.515849562 62.8282036448 -194.769742849 334.964699442 -0.000704518903168 -0.000704518903168 0.000704518903168
1 0.000253247408874 10.8093666151 3.27992810132e-05 25.3162343518 -63.3299840108 3.27142170678 -0.000704518903168 0.000704518903168 -0.000704518903168
1 16.2139113704 13.511704777 2.70161557412 -108.87146164 -79.5137972878 -88.4510940988 -0.000704518903168 0.000704518903168 -0.000704518903168
1 2.70350662964 13.5130856954 0.00153069563727 100.654457116 58.5780509324 153.061056373 -0.000704518903168 0.000704518903168 -0.000704518903168
1 2.70410076099 10.8116209764 2.70412288995 160.067591591 162.106149373 162.280487156 -0.000704518903168 0.000704518903168 -0.000704518903168
1 16.2136942497 10.8055677297 5.40514662745 -130.58353576 -443.218516682 14.6542389476 -0.000704518903168 0.000704518903168 -0.000704518903168
1 0.000136759498235 13.5119629399 8.10847737945 13.6674433625 -53.6974983461 97.7464506418 -0.000704518903168 0.000704518903168 0.000704518903168
1 2.70013335539 13.5121676347 5.40801197903 -236.672965947 -33.2280249998 301.189394989 -0.000704518903168 0.000704518903168 -0.000704518903168
1 2.69976868011 10.8098622423 8.10784379612 -273.140493441 -13.7672659678 34.388118173 -0.000704518903168 0.000704518903168 0.000704518903168
1 16.2129609917 10.81070868 10.8097031903 -203.909338232 70.8765023425 -29.6724615409 -0.000704518903168 0.000704518903168 0.000704518903168
1 16.2140078739 13.5117405056 13.514057266 -99.2211143004 -75.9409343508 155.735102835 -0.000704518903168 0.000704518903168 0.000704518903168
1 2.70404898056 13.5131148725 10.8128379934 154.8895482 61.495752985 283.807841127 -0.000704518903168 0.000704518903168 0.000704518903168
1 2.70051990353 10.8103752448 13.513361831 -198.018152186 37.5329849562 86.1916096407 -0.000704518903168 0.000704518903168 0.000704518903168
1 5.40607224006 0.000482567179263 0.00034963720409 107.215498517 48.2482112439 34.9552138117 -0.000704518903168 -0.000704518903168 -0.000704518903168
1 5.40505714298 2.70281555977 2.70290229199 5.7057916106 31.5474701264 40.2206924096 -0.000704518903168 -0.000704518903168 -0.000704518903168
1 8.10455849798 2.70377999075 0.00173330713648 -294.141694058 127.990568301 173.322206165 0.000704518903168 -0.000704518903168 -0.000704518903168
1 8.10636764971 16.213349543 2.70395570026 -113.22652201 -165.054205086 145.561518357 0.000704518903168 -0.000704518903168 -0.000704518903168
1 5.40508740719 0.00188734463474 5.4033321711 8.73221304776 188.725955892 -166.791395581 -0.000704518903168 -0.000704518903168 -0.000704518903168
1 5.40616632302 2.70434616992 8.10611997482 116.62379521 184.608484341 -137.994010603 -0.000704518903168 -0.000704518903168 0.000704518903168
1 8.10475707433 2.7040272621 5.40551883884 -274.284058608 152.717703036 51.8753768485 0.000704518903168 -0.000704518903168 -0.000704518903168
1 8.10768408204 0.00197973649237 8.11013113674 18.4167099621 197.965141596 263.122178783 0.000704518903168 -0.000704518903168 0.000704518903168
1 5.40292335692 0.00124408831635 10.8106875795 -207.672813354 124.400324465 68.7664535915 -0.000704518903168 -0.000704518903168 0.000704518903168
1 5.40592236345 2.70151980463 13.5126740401 92.2278382906 -98.0280430534 17.4125154518 -0.000704518903168 -0.000704518903168 0.000704518903168
1 8.10912154407 2.70457768699 10.8096266228 162.162912801 207.760191433 -37.3292111218 0.000704518903168 -0.000704518903168 0.000704518903168
1 8.10824953742 16.2140008556 13.5127130546 74.9622480516 -99.9229465544 21.3139640674 0.000704518903168 -0.000704518903168 0.000704518903168
1 5.40747540319 5.40662498801 16.2140286659 247.531811231 162.490293423 -97.1419131269 -0.000704518903168 -0.000704518903168 -0.000704518903168
1 5.40298365736 8.10652829405 2.70229218511 -201.642768903 -97.1620881291 -20.7899956861 -0.000704518903168 0.000704518903168 -0.000704518903168
1 8.10755005726 8.1065522329 0.000649483180778 5.01423228969 -94.7682031667 64.9398112885 0.000704518903168 0.000704518903168 -0.000704518903168
1 8.11052823105 5.40481467703 2.70249175467 302.831609324 -18.5408035935 -0.833039527314 0.000704518903168 -0.000704518903168 -0.000704518903168
1 5.40451679591 5.40469454914 5.40522354599 -48.3289146607 -30.5535924688 22.3460921167 -0.000704518903168 -0.000704518903168 -0.000704518903168
1 5.40380333072 8.10858643355 8.10777447935 -119.675433364 108.651861002 27.4564408566 -0.000704518903168 0.000704518903168 0.000704518903168
1 8.10446402965 8.10508230037 5.40327898216 -303.588527011 -241.761454666 -172.110289358 0.000704518903168 0.000704518903168 -0.000704518903168
1 8.10806408677 5.4049661947 8.10839970331 56.4171828912 -3.3890361653 89.9788364547 0.000704518903168 -0.000704518903168 0.000704518903168
1 5.40565305331 5.40532033869 10.8108140662 65.2968240504 32.0253620036 81.415129647 -0.000704518903168 -0.000704518903168 0.000704518903168
1 5.4046535025 8.10763911922 13.5133976013 -34.6582564572 13.9204280132 89.7686364489 -0.000704518903168 0.000704518903168 0.000704518903168
1 8.10933179861 8.10706649055 10.8083768774 183.188366597 -43.3424381965 -162.303755024 0.000704518903168 0.000704518903168 0.000704518903168
1 8.10723465578 5.40631650091 13.5125887732 -26.5259155262 131.641583347 8.88583052277 0.000704518903168 -0.000704518903168 0.000704518903168
1 5.40504092595 10.8097916316 16.2127567628 4.08408878322 -20.828338248 -224.332220654 -0.000704518903168 0.000704518903168 -0.000704518903168
1 5.40785434273 13.5134053351 2.70214344682 285.425765299 90.5420128234 -35.6638241335 -0.000704518903168 0.000704518903168 -0.000704518903168
1 8.10794862125 13.510389384 16.2144256629 44.8706309661 -211.053091214 -57.442219292 0.000704518903168 0.000704518903168 -0.000704518903168
1 8.10823535414 10.8112122766 2.69972134549 73.5439201493 121.236163466 -277.873955461 0.000704518903168 0.000704518903168 -0.000704518903168
1 5.40555746503 10.8090592435 5.40691376616 55.7379967237 -94.0671470765 191.368108337 -0.000704518903168 0.000704518903168 -0.000704518903168
1 5.40531124168 13.513039194 8.10808198926 31.1156609474 53.9279027167 58.2074317237 -0.000704518903168 0.000704518903168 0.000704518903168
1 8.10793447429 13.5114797138 5.40424662742 43.4559352843 -102.020109095 -75.3457640203 0.000704518903168 0.000704518903168 -0.000704518903168
1 8.10799902455 10.8099551372 8.10782466865 49.9109611003 -4.47777313696 32.4753712864 0.000704518903168 0.000704518903168 0.000704518903168
1 5.40500304176 10.8100976253 10.8079472814 0.295669132044 9.77103423088 -205.263356429 -0.000704518903168 0.000704518903168 0.000704518903168
1 5.40500549586 13.5107462721 13.5121315406 0.541079640172 -175.364281684 -36.837431795 -0.000704518903168 0.000704518903168 0.000704518903168
1 8.1071733339 13.5118301641 10.814002276 -32.6581030591 -66.9750869527 400.236104077 0.000704518903168 0.000704518903168 0.000704518903168
1 8.10655561875 10.8078110877 13.5123683981 -94.4296181611 -218.88272114 -13.151687881 0.000704518903168 0.000704518903168 0.000704518903168
1 10.808599858 0.000275236275778 0.00127295511443 -140.00569041 27.5151210281 127.287004254 0.000704518903168 -0.000704518903168 -0.000704518903168
1 10.8098484834 2.70276332449 2.70052380086 -15.1431509809 26.3239420587 -197.628419216 0.000704518903168 -0.000704518903168 -0.000704518903168
1 13.5143505316 2.70283667739 16.2144252819 185.061665815 33.6592320788 -57.4803180056 0.000704518903168 -0.000704518903168 -0.000704518903168
1 13.5114430162 16.2136574427 2.70400959184 -105.689872817 -134.264233998 150.950676684 0.000704518903168 -0.000704518903168 -0.000704518903168
1 10.8095147554 5.97946533458e-05 5.40208646061 -48.5159577631 5.97095892277 -291.362443439 0.000704518903168 -0.000704518903168 -0.000704518903168
1 10.8102102996 2.70195269913 8.10674101285 21.0384661007 -54.7385928837 -75.8902081629 0.000704518903168 -0.000704518903168 0.000704518903168
1 13.5102475985 2.70326055887 5.40443466985 -225.231640078 76.0473802792 -56.5415209724 0.000704518903168 -0.000704518903168 -0.000704518903168
1 13.5117000184 16.214015878 8.10737243846 -79.9896519188 -98.4207103418 -12.7476476975 0.000704518903168 -0.000704518903168 0.000704518903168
1 10.8112410224 16.2141877693 10.8106961807 124.110743101 -81.2315795956 69.6265744954 0.000704518903168 -0.000704518903168 0.000704518903168
1 10.807860198 2.70168338906 13.5113486728 -213.9716948 -81.6696002802 -115.124215118 0.000704518903168 -0.000704518903168 0.000704518903168
1 13.5142152908 2.70349921229 10.8097365881 171.537583044 99.9127220179 -26.3326823084 0.000704518903168 -0.000704518903168 0.000704518903168
1 13.5134090951 0.000284892683133 13.5121787394 90.9180150522 28.4807617574 -32.1175580239 0.000704518903168 -0.000704518903168 0.000704518903168
1 10.809285732 5.40583762639 0.00037207483398 -71.4182916985 83.754132108 37.1989767863 0.000704518903168 -0.000704518903168 -0.000704518903168
1 10.8113803322 8.10689087172 2.70242342856 138.041727292 -60.9043211452 -7.6656500437 0.000704518903168 0.000704518903168 -0.000704518903168
1 13.513371538 8.1073439644 16.2132186246 87.1623070569 -15.5950534571 -178.146043458 0.000704518903168 0.000704518903168 -0.000704518903168
1 13.5107600758 5.40378183775 2.70333980494 -173.983914389 -121.824730441 83.9719870409 0.000704518903168 -0.000704518903168 -0.000704518903168
1 10.8110688612 5.40415012774 5.40645627209 106.894622294 -84.9957318318 145.61870153 0.000704518903168 -0.000704518903168 -0.000704518903168
1 10.8116188386 8.10765088287 8.10552622619 161.892366303 15.0967929136 -197.368872904 0.000704518903168 0.000704518903168 0.000704518903168
1 13.5089728326 8.10620791572 5.40710705637 -352.708226755 -129.199920977 210.697129702 0.000704518903168 0.000704518903168 -0.000704518903168
1 13.5109336451 5.40716076926 8.10641098818 -156.626983733 216.068418338 -108.89267528 0.000704518903168 -0.000704518903168 0.000704518903168
1 10.8099995117 5.40570699493 10.8096163053 -0.0403232650604 70.6909861174 -38.3609654926 0.000704518903168 -0.000704518903168 0.000704518903168
1 10.8095196191 8.1076763807 13.5131664974 -48.0295851427 17.6465767329 66.6582464306 0.000704518903168 0.000704518903168 0.000704518903168
1 13.5119395084 8.1066560322 10.8092639776 -56.0406565952 -84.3882728972 -73.5937327261 0.000704518903168 0.000704518903168 0.000704518903168
1 13.5122633738 5.40355959296 13.5116782708 -23.6541113345 -144.049209807 -82.1644084306 0.000704518903168 -0.000704518903168 0.000704518903168
1 10.8094599006 10.8086894303 0.000753893885403 -54.0014286791 -131.048458567 75.3808816843 0.000704518903168 0.000704518903168 -0.000704518903168
1 10.8104077711 13.512856172 2.70310754625 40.785616963 35.6257046424 60.7461185938 0.000704518903168 0.000704518903168 -0.000704518903168
1 13.511629825 13.5121836111 16.2146721953 -87.0089920772 -31.6303871889 -32.7889745976 0.000704518903168 0.000704518903168 -0.000704518903168
1 13.5124147514 10.8118503152 2.70311862862 -8.51634941412 185.040023289 61.8543554667 0.000704518903168 0.000704518903168 -0.000704518903168
1 10.8076885337 10.8116793388 5.40652448077 -231.138124416 167.942387392 152.439570079 0.000704518903168 0.000704518903168 -0.000704518903168
1 10.8116915172 13.5114653424 8.10735124295 169.160222563 -103.457254673 -14.8671986293 0.000704518903168 0.000704518903168 0.000704518903168
1 13.5144791482 13.5135885157 5.40566754202 197.923329225 108.860079358 66.7456947925 0.000704518903168 0.000704518903168 -0.000704518903168
1 13.5146074711 10.8103536441 8.10704882587 210.755611562 35.3729120906 -45.1089062793 0.000704518903168 0.000704518903168 0.000704518903168
1 10.8085241631 10.8110583814 10.8080566336 -147.575182347 105.84664911 -194.328127558 0.000704518903168 0.000704518903168 0.000704518903168
1 10.809403415 13.5118932368 13.5110921253 -59.6499971196 -60.6678164679 -140.778962563 0.000704518903168 0.000704518903168 0.000704518903168
1 13.5119491185 13.5128845225 10.8089161218 -55.0796406222 38.4607556004 -108.379312076 0.000704518903168 0.000704518903168 0.000704518903168
1 13.5123086702 10.8093822784 13.512575693 -19.1244729181 -61.7636536348 7.5778093708 0.000704518903168 0.000704518903168 0.000704518903168
108
Atom. timestep:0.997765006386
1 0.320452278162 0.066238239574 0.0275618551809 236.150162381 50.9307062781 -0.0679667664191 -0.108622578057 -0.0211226249562 -0.0433995056412
1 0.087586147562 2.82147512884 2.79474507797 41.4814502799 105.475840005 58.0554681895 -0.0574024793369 -0.0144803496796 -0.0438861956465
1 2.68683232431 2.69092312722 0.00107749969205 10.6937195152 2.01815092633 -11.6653482147 0.0316392129556 0.0157082908393 -0.016277059087
1 2.74334306057 0.166411397601 2.38904541573 73.8094150296 139.942751272 -226.647899283 0.0496611406197 -0.0296612004369 0.114943404986
1 0.228926895337 0.112721616833 5.16879646971 192.412279574 93.7598664963 -214.944431936 -0.0408963757779 -0.0269326119655 0.0210318432726
1 16.1237070712 2.67026688871 8.16528859444 -86.9938668549 -24.953714758 42.3878261697 0.00610550840441 0.0083163998958 -0.019923940717
1 2.56799019928 2.77671770757 5.3248637096 -99.3078181841 64.9010086791 -41.2212645468 0.044202545346 -0.00996629991962 0.0529424089834
1 2.64734850613 0.205225775818 8.0796313532 -45.0414563814 194.744198494 -15.709402152 0.0115455479404 -0.0106717727498 0.0125903774056
1 0.0577318713656 15.9657298866 10.9903005429 61.9905747998 -216.708068967 161.525885369 0.00542103236992 0.0347843246167 -0.0198347523836
1 0.109021056694 2.70301302751 13.5027608224 98.7156468535 -20.58736725 -1.74662562178 -0.0125693229436 -0.0256534968064 0.0101631729128
1 2.77605798684 2.93127356718 11.0222047682 64.6273874936 201.73066782 185.520114169 -0.00857600277897 -0.0285455759863 -0.0292923908498
1 2.84709250947 16.1710007704 13.5798395858 130.344768257 -36.5191007911 80.0469611827 -0.0156717679986 0.00980344734272 0.0177752505904
1 16.1154411927 5.38793205208 16.1373148434 -86.2181277556 -9.87210312898 -60.0270195151 0.0162064161999 0.00935722517321 0.0187234274236
1 0.0124185683793 8.00205490396 2.72393074655 9.99617885773 -99.7198701321 -3.93590211164 -0.0018995653818 0.00707253992994 -0.0361483502771
1 2.57823806881 8.13615595814 16.0563521538 -109.685499198 18.2767579813 -123.825955974 0.0168041080537 -0.0119898347373 0.0380263336301
1 2.84002877497 5.05403266384 2.68944160711 122.074744203 -266.825827493 -36.6738107603 -0.0195852237034 0.105884029358 -0.0294854964597
1 0.0243065743931 5.53035572268 5.27175349857 9.40113845751 112.612761751 -98.9779294249 -0.016792913058 -0.0160832898361 0.0409113763469
1 0.00663956057191 8.12457589919 8.21308967731 -3.80584925597 -18.3774755476 107.655446061 -0.0129338135047 -0.0429208856409 0.00465759755331
1 2.68154994031 8.08240482581 5.53145598313 -10.915141996 -32.8535697845 111.20585966 0.0125520360954 -0.00804157189061 -0.0156336632662
1 2.72606002012 5.30712077504 8.16885943513 9.44820802111 -83.3640402799 62.9385684596 -0.0159650448609 0.0161924835786 0.00136919888877
1 16.0617289183 5.28778795176 10.9785481743 -109.128174981 -78.3674593209 136.575874148 0.0569670814988 0.0506939585885 -0.0378037680706
1 0.0319859668863 8.08583252026 13.4171046782 9.27754323426 -27.1493612077 -88.027211565 -0.029936295335 -0.00616442374265 0.0107790715298
1 2.53262058427 8.20697475761 10.8947056372 -142.614353612 81.5482172741 78.4583334049 0.0339291401849 -0.0171275049332 -0.0103083951922
1 2.76813979701 5.22572966904 13.8321193181 69.9928774701 -139.516728834 278.51200934 0.00697086188923 0.0506493473831 -0.0478340138866
1 0.0211184778713 10.7481509098 0.0108067495162 10.0819136903 -56.4130607723 26.1495820477 -0.0152600067334 0.00604444299534 0.0191337710429
1 16.117247108 13.4379838351 2.61778342391 -72.1879306687 -60.5118701597 -76.4498813699 0.030018019842 0.0178986261053 0.00698351313754
1 2.80560638233 13.5622754888 0.145616740902 104.800377556 29.0371469931 125.504936048 0.00314242848297 -0.0255224425509 -0.0227890411736
1 2.85879662753 10.9678711205 2.86201445301 144.400838687 145.887777257 150.84855724 -0.0118536043455 -0.0112553846986 -0.00685361340354
1 16.0863549002 10.3848309949 5.41292198037 -120.586244653 -377.131374903 -6.88335073655 0.00844369542433 0.0517683828349 -0.0184565789769
1 0.0123391050706 13.4703124192 8.20625507523 5.73642718704 -16.0992546263 101.949032653 -0.0124086011335 0.0330452365608 0.0101686589456
1 2.47842150067 13.480437081 5.68872834083 -192.000005532 -30.2981502407 241.979050137 0.0369770937461 0.00129032785854 -0.0467144138691
1 2.44124884535 10.7981697492 8.14732139109 -228.036624387 -10.0075007935 48.7824429549 0.0381276942698 -0.00104629294875 0.0105532552754
1 16.019025404 10.8805823962 10.7912476601 -172.847026436 65.9088023513 6.08579317223 0.0268469902579 -0.00707707709712 0.0319509118968
1 16.1189634873 13.440060587 13.6676328029 -86.829055859 -63.387786827 149.015266775 0.00943489988283 0.0101488319268 -0.00564489005948
1 2.84509439227 13.5648833704 11.0764642049 112.235231407 30.9653783304 221.945905304 -0.0364215617263 -0.0262528904723 -0.0526666047508
1 2.51243446208 10.8494298426 13.5904424123 -167.767450947 42.1872582637 59.5940802883 0.0252023309237 0.00371481900187 -0.0208201678707
1 5.51407719697 0.0415343756928 0.0293023312501 108.905463391 25.7455861516 17.551121918 0.000641564487637 -0.019491981307 -0.013202575674
1 5.41485218056 2.73465845162 2.73797220485 19.4295195228 28.1544863968 26.8811563115 0.0142909767367 -0.00960055436925 -0.00746008252257
1 7.83415248351 2.82166120226 0.163244212038 -219.190869281 96.6201955642 137.160023632 0.0670500661018 -0.0268204434543 -0.0308437079823
1 8.0076698351 16.0688213731 2.83449729837 -63.2275384767 -97.2961539231 98.7725118663 0.0503273543059 0.0652712519325 -0.0401230577166
1 5.4021058649 0.175954797963 5.25274046488 -28.4990277219 145.197931844 -117.00263228 -0.0327449730755 -0.0347667121935 0.0420991595939
1 5.50723346268 2.87769791526 7.98750313804 67.1824291908 149.100443875 -74.4782974237 -0.0443789742142 -0.0311321776426 0.0601419521417
1 7.86174376981 2.84920670925 5.4483612885 -175.920317311 130.055133158 21.5004013721 0.087043341539 -0.0187462978823 -0.0299157934284
1 8.12509177334 0.183912646338 8.36169451535 13.3419298084 152.482288216 230.809764636 -0.00693118962187 -0.0335456992375 -0.0230405923169
1 5.21265654775 0.12535451257 10.8721683756 -156.42746351 122.033088925 44.3691590144 0.0398970424333 -0.00359459343766 -0.0234598754824
1 5.50137411375 2.61134792845 13.5320950269 101.398895406 -73.7026125598 23.1560934217 0.0068167623671 0.0207676497101 0.00420878710547
1 8.25776922313 2.90079235548 10.7762227718 119.651832676 174.494772459 -26.7962027479 -0.0375303000642 -0.024819255024 0.00633268035721
1 8.17389424074 16.1215478187 13.5369813014 47.5432103333 -76.9239287585 31.7504827543 -0.0211935107567 0.0193730833591 0.0107795407375
1 5.63313112574 5.55938585958 16.1299840146 176.992932318 133.026197949 -57.2622464402 -0.0650299808875 -0.0244068812964 0.0328270516976
1 5.20518977658 8.01434736832 2.67714048202 -192.758557211 -82.851064646 -33.5776093779 0.00348739619548 0.0108095868467 -0.00988281243376
1 8.11412050964 8.02397705456 0.0685441616443 12.8226687659 -54.5215804619 73.3096394871 0.0114607641856 0.0384722330968 0.00643176073938
1 8.39331803205 5.38771813159 2.70815724357 243.289031862 -14.8115230184 18.8354980941 -0.0476094443303 0.00245250640857 0.016197433152
1 5.34942011072 5.37987590365 5.42504789039 -74.8370649116 -13.3883850119 14.0932965481 -0.0309293686416 0.0134766501396 -0.00769597460985
1 5.28809918775 8.20257019035 8.14026347602 -107.897049576 63.6459513898 42.1812296855 0.00936366585557 -0.0389406313796 0.0115063640465
1 7.82275564388 7.87903791513 5.23972188156 -238.543357101 -193.282291361 -144.892691863 0.052278505187 0.0423165107328 0.023878035502
1 8.16395137635 5.41006736773 8.18757718611 54.5121498451 20.9610903162 55.3275746598 -0.00205913285406 0.0180691674433 -0.0314858948652
1 5.4668046886 5.44327643367 10.8914686531 54.1140786609 48.6022565799 77.717240309 -0.00723329675771 0.0118904122794 -0.00487036656166
1 5.36561533209 8.12144546982 13.5861811097 -49.1581652759 11.4681553585 39.7423051634 -0.0140282345223 -0.00535565821051 -0.0395767951714
1 8.28185563533 8.06852882589 10.6527753013 151.393598332 -27.8485340972 -141.53752699 -0.0257092906042 0.0144231799837 0.0182758619047
1 8.08713768986 5.53229641871 13.5165468919 -5.8352277855 114.166851163 -7.21875561968 0.0188116533278 -0.0143312556737 -0.0151177457171
1 5.40345224227 10.7856073566 16.0082183834 -13.503050518 -30.0124514669 -162.958826605 -0.0147978384485 -0.00670207877318 0.0530287520047
1 5.66611542305 13.5905504563 2.66989221696 199.773526006 44.5764195866 -29.4380465695 -0.0770727375536 -0.0471215439294 -0.000590688336647
1 8.15466025139 13.3161555182 16.1469024446 49.9267137087 -157.071549123 -91.4905620918 0.00337863386511 0.0489301340688 -0.0339262896621
1 8.17309479599 10.9126385106 2.44599909704 46.5372282567 61.6005449161 -200.759079445 -0.0236775326674 -0.0493696884604 0.0703823881411
1 5.45763693507 10.7248259012 5.58742089433 44.318608955 -64.1539939039 159.250250855 -0.00966733857046 0.0246479985233 -0.025513759329
1 5.43591239132 13.5728475112 8.16386626962 29.5423383005 70.4311624221 50.8257436917 -0.00133190836988 0.0121640465871 -0.0060191638652
1 8.14301876119 13.4207511266 5.34296765695 15.1913343962 -66.9972778532 -35.0907664831 -0.0282306638259 0.0312345267027 0.0297172251847
1 8.1504178379 10.8051241424 8.13768183963 23.2817214086 -4.65424240401 24.7677510152 -0.0278281069521 0.00088622057154 -0.00632784029255
1 5.40217290227 10.8146846542 10.6168685446 -8.68458344101 -2.3736084272 -162.85285389 -0.00671910541118 -0.00482751308413 0.0347371938486
1 5.40628029236 13.3447930412 13.4867477641 1.95570087932 -147.285546095 0.116885563543 2.46187784015e-05 0.0225509105907 0.0343632282904
1 8.06950392366 13.4496466742 11.1805133124 -49.6312496646 -55.5024174516 296.033331859 -0.0161281707951 0.00441578380531 -0.0900432597154
1 8.02126866686 10.5915700115 13.4963815 -66.3690635395 -209.611150562 -22.3434065095 0.0238189500702 0.0095002549584 -0.00866415702381
1 10.6724457267 0.0262068835872 0.11973098756 -129.180000952 20.043524616 101.263213633 0.00762226400901 -0.00992975298742 -0.0207115581531
1 10.7916069121 2.72217513528 2.51187486516 -21.5205638259 4.93259766193 -171.089767931 -0.00104188530562 -0.018363760475 0.0209768741004
1 13.6880417548 2.72655204528 16.1613171737 151.519475401 3.98543503597 -43.565595413 -0.0267416176332 -0.0241598773333 0.0123133801822
1 13.4218238506 16.0931003761 2.83631953475 -56.0888526497 -93.5620608649 95.2061462244 0.0424634803927 0.0321734949131 -0.0453984465927
1 10.7541063718 0.0103203629006 5.13711513906 -68.5246607824 20.3242855107 -210.271054723 -0.0154683266888 0.0143003272358 0.0688758151558
1 10.8322051705 2.64692684809 8.03732308876 23.2702727988 -55.1354889101 -55.3335727638 0.000742911338773 -7.37073141449e-05 0.0182685743511
1 13.3058571446 2.76670636856 5.35222312276 -161.820173307 35.0438223192 -44.3208217057 0.0529082918884 -0.038473335481 0.00870919294121
1 13.4406239091 16.1272177275 8.09072449565 -54.6485924885 -62.5530188307 -22.4021954911 0.0185965993461 0.0305272377355 -0.00500920166961
1 10.9288815492 16.1400244439 10.8744519793 103.82907579 -59.6426670131 52.3922229966 -0.0178008513992 0.0180873577023 -0.0131496098549
1 10.6076621751 2.62693875754 13.411226165 -170.981648453 -60.8297655906 -69.9480405916 0.0373539643344 0.0167718252817 0.0376115946772
1 13.6660092335 2.7870967862 10.7812697932 107.569678867 46.2848503972 -31.5197054073 -0.0592043650248 -0.0507501486548 -0.00247980101741
1 13.5980605523 0.0296488416506 13.4886373088 72.6957446112 30.6948826466 -8.32161343349 -0.0140937704333 0.00148152992 0.0168379718379
1 10.7484508866 5.48091010736 0.0242771499028 -38.4744917368 58.6594487728 -3.49047119038 0.0284202863065 -0.0187094296859 -0.0340694619052
1 10.9437773342 8.05598898741 2.70052459657 121.272313779 -31.5239394497 6.5108080553 -0.0135451586068 0.0229884565234 0.00709219624537
1 13.5966441049 8.08930178029 16.0469499761 74.532575694 -22.9470961036 -144.004078146 -0.0115969171137 -0.00602699405261 0.0256677447095
1 13.3493088848 5.29130188653 2.77793556471 -135.704398323 -93.4856854913 55.6491494448 0.0317923014618 0.0232866282461 -0.0232985198466
1 10.8894458514 5.318503565 5.53892872153 15.2416784561 -86.4101948205 103.760653586 -0.0821129678032 0.000721265184461 -0.0364477021037
1 10.9372018881 8.1335210865 7.93410227364 33.004369387 51.2028244486 -98.5154241893 -0.135665094854 0.0347479990966 0.113472521915
1 13.1935582374 7.99717318869 5.57948410991 -221.859521317 -62.1974285567 72.5631186604 0.136216251289 0.0625141678019 -0.149615324646
1 13.3766443923 5.59469279022 8.01500505402 -85.1508917019 122.574684182 -48.1232319662 0.0636661230332 -0.0863736443827 0.0608029404593
1 10.8165385782 5.47280146206 10.7724673391 20.8546029137 58.9914269506 -33.6877458439 0.0186148036924 -0.0106257766173 0.00505751103636
1 10.7666226654 8.12424194882 13.5713431704 -32.9175988626 13.6744772491 42.3279150526 0.0121618755456 -0.00431988724901 -0.0184760707543
1 13.4544920623 8.03192276194 10.7425804205 -58.3596067792 -55.4261450498 -52.2807374912 0.000572859918291 0.0236984023745 0.0179080510335
1 13.4789171997 5.26703845636 13.4384818966 -53.4495418674 -120.912577859 -53.030926659 -0.0255059955586 0.0190683373486 0.0268617241821
1 10.7668755376 10.6822518153 0.0667666625498 -16.8322640195 -117.681891918 45.3101028591 0.0347223686719 0.00981463839027 -0.0272144009753
1 10.8478176887 13.5403982077 2.75722606968 29.0257783187 9.45760077383 39.9089759304 -0.0122306506467 -0.0238605646702 -0.0182149674019
1 13.4229748677 13.4855709025 16.1809534127 -92.8406591127 -18.421386029 -34.5112207005 -0.00623431576121 0.00827459707647 0.000188732038233
1 13.4983073619 10.979596278 2.76598916937 -25.4123397125 134.528485074 64.0501244566 -0.0140815966648 -0.0391962770472 0.000950358987338
1 10.5949371515 10.9618418458 5.54195182197 -171.560420048 110.208934742 99.1698689576 0.0556643022229 -0.0541279797533 -0.0463965467386
1 10.9657393384 13.4231701529 8.08996816515 126.384277962 -57.8421753685 -23.5188446479 -0.031163632782 0.0372622897502 -0.00867432136644
1 13.7081532606 13.6134507276 5.47225378715 185.719142484 81.6062691363 65.6285435605 -0.0088459723365 -0.0225194824329 -0.00191780188695