108
Atom. timestep:0
1 16.2143351752 16.2143535483 16.2144743845 -66.4909828935 -64.6536737109 -52.5700571575 -0.000704518903168 -0.000704518903168 -0.000704518903168
1 16.2147612849 2.70293979147 2.70147506265 -23.8800169501 43.9706406166 -102.502240835 -0.000704518903168 -0.000704518903168 -0.000704518903168
1 2.70276305322 2.70208921516 0.000661779771709 26.2968152055 -41.0869900153 66.1694703738 -0.000704518903168 -0.000704518903168 -0.000704518903168
1 2.70285358819 16.2144580303 2.70246529083 35.350312689 -54.2054761813 -3.47942338464 -0.000704518903168 -0.000704518903168 -0.000704518903168
1 0.000449383805547 0.00108513543558 5.40519819089 44.9298738935 108.50503649 19.8105824085 -0.000704518903168 -0.000704518903168 -0.000704518903168
1 16.214696659 2.70261788751 8.10697302359 -30.3426045936 11.7802444343 -52.6891345426 -0.000704518903168 -0.000704518903168 0.000704518903168
1 2.70208693517 2.70334431924 5.40493239076 -41.3149889336 84.4234166775 -6.76943002234 -0.000704518903168 -0.000704518903168 -0.000704518903168
1 2.70204910879 16.2144140931 8.1073519815 -45.0976274541 -58.5991952796 -14.7933432071 -0.000704518903168 -0.000704518903168 0.000704518903168
1 16.2145217671 0.000669721369379 10.8105474805 -47.8317926529 66.9636301357 54.7565606629 -0.000704518903168 -0.000704518903168 0.000704518903168
1 16.2146810851 2.70209540608 13.5121677554 -31.8999985597 -40.4678977061 -33.2159568587 -0.000704518903168 -0.000704518903168 0.000704518903168
1 2.70225955652 2.70281163381 10.8099883929 -24.0528544932 31.1548740916 -1.15220248953 -0.000704518903168 -0.000704518903168 0.000704518903168
1 2.70329140664 0.000194394037306 13.5119321749 79.1321567431 19.4308972326 -56.7740010548 -0.000704518903168 -0.000704518903168 0.000704518903168
1 16.2138208959 5.40592456309 0.000563067215024 -117.918912358 92.4478018096 56.2982147685 -0.000704518903168 -0.000704518903168 -0.000704518903168
1 16.2142079171 8.10721569694 2.70191335543 -79.2167991741 -28.4217996074 -58.6729627001 -0.000704518903168 0.000704518903168 -0.000704518903168
1 2.70229185692 8.10725854143 16.2146843511 -20.8228143603 -24.1373508417 -31.5733984507 -0.000704518903168 0.000704518903168 -0.000704518903168
1 2.70185300191 5.40361264703 2.70272108409 -64.7083153412 -138.743802351 22.0999021166 -0.000704518903168 -0.000704518903168 -0.000704518903168
1 0.000265180633387 5.40517777255 5.40464090939 26.5095567955 17.7687487373 -35.917566744 -0.000704518903168 -0.000704518903168 -0.000704518903168
1 1.0779068013e-05 8.1073457745 8.10803258972 1.06940042086 -15.4140432625 53.2674781325 -0.000704518903168 0.000704518903168 0.000704518903168
1 2.70256442151 8.10711620472 5.40513932659 6.43364487182 -38.371021845 13.9241523607 -0.000704518903168 0.000704518903168 -0.000704518903168
1 2.70204854205 5.40597526978 8.10836179404 -45.1543009979 97.5184714438 86.1879098469 -0.000704518903168 -0.000704518903168 0.000704518903168
1 16.2143521944 5.40562428273 10.8092068066 -64.7890691737 62.4197660899 -79.3108331383 -0.000704518903168 -0.000704518903168 0.000704518903168
1 16.2141550063 8.10730712754 13.5132139162 -84.5078792801 -19.2787396542 71.4001258753 -0.000704518903168 0.000704518903168 0.000704518903168
1 2.70237730154 8.10735928525 10.8100467884 -12.2783520725 -14.0629683555 4.68734764801 -0.000704518903168 0.000704518903168 0.000704518903168
1 2.70365462325 5.40508811568 13.51311195 115.453817424 8.80306203101 61.2035019098 -0.000704518903168 -0.000704518903168 0.000704518903168
1 0.00103531383195 10.8098359696 16.2144008238 103.522876159 -16.3945320587 -59.9261215198 -0.000704518903168 0.000704518903168 -0.000704518903168
1 0.000847468348165 13.5134861004 2.70314663412 84.7383279006 98.6185452148 64.6549047653 -0.000704518903168 0.000704518903168 -0.000704518903168
1 2.70310513117 13.5132610708 0.000612410067783 60.5046104736 76.1155905079 61.2325000128 -0.000704518903168 0.000704518903168 -0.000704518903168
1 2.70223941249 10.8110013563 2.70153734747 -26.0672570244 100.144134575 -96.2737583807 -0.000704518903168 0.000704518903168 -0.000704518903168
1 16.2138633038 10.8089759469 5.40541755306 -113.678120662 -102.396799296 41.7467994556 -0.000704518903168 0.000704518903168 -0.000704518903168
1 0.00047306579055 13.5125557601 8.10837049959 47.2980723787 5.58451622277 87.0584645038 -0.000704518903168 0.000704518903168 0.000704518903168
1 2.70159126594 13.5115926599 5.40547387383 -90.8819118287 -90.7254989004 47.3788768116 -0.000704518903168 0.000704518903168 -0.000704518903168
1 2.70295218689 10.8098656658 8.10674198135 45.2101825515 -13.4249172876 -75.793357873 -0.000704518903168 0.000704518903168 0.000704518903168
1 0.000472536910614 10.8103016937 10.8104738633 47.2451843854 30.177878933 47.3948401289 -0.000704518903168 0.000704518903168 0.000704518903168
1 16.2143670448 13.5119295445 13.51237059 -63.3040231896 -57.0370427054 -12.9324930786 -0.000704518903168 0.000704518903168 0.000704518903168
1 2.70235391924 13.5121016845 10.810166403 -14.6165820658 -39.8230419964 16.6488087105 -0.000704518903168 0.000704518903168 0.000704518903168
1 2.70295852597 10.8090819642 13.5127691307 45.8440905715 -91.7950713472 26.9215757074 -0.000704518903168 0.000704518903168 0.000704518903168
1 5.40485929497 16.2134867272 0.000479551994501 -14.0790093589 -151.33578862 47.9466927697 -0.000704518903168 -0.000704518903168 -0.000704518903168
1 5.40479949789 2.70253487373 2.70302336503 -20.0587168668 3.4788661917 52.3279964819 -0.000704518903168 -0.000704518903168 -0.000704518903168
1 8.10720827016 2.70130295637 16.21467226 -29.1644771237 -119.712868818 -32.782505984 0.000704518903168 -0.000704518903168 -0.000704518903168
1 8.10782789415 0.000162891727328 2.70222352113 32.7979213763 16.280666255 -27.6563931173 0.000704518903168 -0.000704518903168 -0.000704518903168
1 5.40516944267 0.000921078460003 5.40418473856 16.9357602951 92.0993390373 -81.5346498138 -0.000704518903168 -0.000704518903168 -0.000704518903168
1 5.40540247852 2.70243264779 8.10717647518 40.2393458531 -6.74372705589 -32.3439754134 -0.000704518903168 -0.000704518903168 0.000704518903168
1 8.10673141913 2.70302738154 5.40556679063 -76.8495799311 52.7296472539 56.670555857 0.000704518903168 -0.000704518903168 -0.000704518903168
1 8.10670127431 16.2147292146 8.10813630254 -79.8640616955 -27.0870466769 63.6387601843 0.000704518903168 -0.000704518903168 0.000704518903168
1 5.40544327553 16.214993482 10.8105985174 44.3190465505 -0.660307754084 59.8602472786 -0.000704518903168 -0.000704518903168 0.000704518903168
1 5.40522166656 2.70389089234 13.5123725158 22.1581497255 139.080726641 -12.7399157999 -0.000704518903168 -0.000704518903168 0.000704518903168
1 8.10697663496 2.70283127549 10.8094779375 -52.3279971246 33.1190421072 -52.1977403227 0.000704518903168 -0.000704518903168 0.000704518903168
1 8.10695971506 0.000220887592758 13.5122318625 -54.0199870941 22.0802527609 -26.8052397638 0.000704518903168 -0.000704518903168 0.000704518903168
1 5.4056787506 5.40560186265 16.2145769356 67.8665530782 60.1777585024 -42.3149479886 -0.000704518903168 -0.000704518903168 -0.000704518903168
1 5.40427863742 8.10779251481 2.70142511914 -72.1447639644 29.2599875105 -107.496591231 -0.000704518903168 0.000704518903168 -0.000704518903168
1 8.10747895939 8.1073565904 16.214624806 -2.09555413594 -14.3324539667 -37.5279053246 0.000704518903168 0.000704518903168 -0.000704518903168
1 8.10695411342 5.40646524719 2.70282607701 -54.580150991 146.516212021 32.5991943438 0.000704518903168 -0.000704518903168 -0.000704518903168
1 5.40622386118 5.4055129487 5.40417478101 122.377610409 51.2863629544 -82.5304046296 -0.000704518903168 -0.000704518903168 -0.000704518903168
1 5.40490873529 8.10764683257 8.10792515 -9.1349774982 14.6917631507 42.5235060116 -0.000704518903168 0.000704518903168 0.000704518903168
1 8.10778606303 8.10887853266 5.40357260406 28.6148088806 137.861771964 -142.748099775 0.000704518903168 0.000704518903168 -0.000704518903168
1 8.10683516251 5.40504078722 8.10730100856 -66.4752418402 4.07021512135 -19.8906375026 0.000704518903168 -0.000704518903168 0.000704518903168
1 5.40424142135 5.40448712942 10.8094421075 -75.8663710577 -51.2955644691 -55.7807451646 -0.000704518903168 -0.000704518903168 0.000704518903168
1 5.40531002954 8.10706110427 13.5124074922 30.9944471253 -43.881066018 -9.24227578767 -0.000704518903168 0.000704518903168 0.000704518903168
1 8.10907655913 8.10746995505 10.8105768003 157.664418484 -2.99598861953 57.6885387731 0.000704518903168 0.000704518903168 0.000704518903168
1 8.10652051216 5.4053113306 13.5123295032 -97.9402772475 31.12455293 -17.0411719289 0.000704518903168 -0.000704518903168 0.000704518903168
1 5.40364730386 10.8104990242 0.000566169380688 -135.278119983 49.9109229705 56.6084313329 -0.000704518903168 0.000704518903168 -0.000704518903168
1 5.40442590785 13.5121221007 2.70231177018 -57.4177208453 -37.7814237904 -18.83148797 -0.000704518903168 0.000704518903168 -0.000704518903168
1 8.1084584026 13.512469274 16.2149050133 95.8487661863 -3.06409297873 -9.50718050696 0.000704518903168 0.000704518903168 -0.000704518903168
1 8.10765561146 10.809989844 2.70307534225 15.5696517775 -1.00709327385 57.5257179904 0.000704518903168 0.000704518903168 -0.000704518903168
1 5.40453034267 10.8105749098 5.40469196005 -46.9742389384 57.4994849205 -30.8125009032 -0.000704518903168 0.000704518903168 -0.000704518903168
1 5.40550998748 13.5135168606 8.10767574337 50.9902410523 101.694561051 17.5828433445 -0.000704518903168 0.000704518903168 0.000704518903168
1 8.10709217978 13.5117735431 5.40579044691 -40.7735157242 -72.637185985 79.0361841761 0.000704518903168 0.000704518903168 -0.000704518903168
1 8.10772304739 10.8090238807 8.10783362839 22.3132448684 -97.6034263846 33.3713454412 0.000704518903168 0.000704518903168 0.000704518903168
1 5.40576586316 10.8109156805 10.8098475848 76.5778094708 91.5765552813 -15.23301043 -0.000704518903168 0.000704518903168 0.000704518903168
1 5.40481822297 13.5130869133 13.5127488493 -18.186209426 58.6998381337 24.8934386086 -0.000704518903168 0.000704518903168 0.000704518903168
1 8.10776558769 13.51172958 10.8107502902 26.5672749316 -77.0334965669 75.0375251103 0.000704518903168 0.000704518903168 0.000704518903168
1 8.10766476664 10.8098536056 13.5141366459 16.4851697701 -14.6309293711 163.673095853 0.000704518903168 0.000704518903168 0.000704518903168
1 10.8094582693 9.7346614155e-05 16.2144365708 -54.1645617467 9.72615497966 -56.351426015 0.000704518903168 -0.000704518903168 -0.000704518903168
1 10.8105902682 2.70228096274 2.70180929372 59.0353292058 -21.9122317746 -69.0791337756 0.000704518903168 -0.000704518903168 -0.000704518903168
1 13.5132605333 2.7029570921 0.000668305797091 76.0618361258 45.7007031435 66.8220729079 0.000704518903168 -0.000704518903168 -0.000704518903168
1 13.5134703014 16.2144224776 2.70238328547 97.0386419743 -57.7607442653 -11.6799595795 0.000704518903168 -0.000704518903168 -0.000704518903168
1 10.8104170249 16.2131273016 5.40611047285 41.7109919854 -187.278343645 111.038777782 0.000704518903168 -0.000704518903168 -0.000704518903168
1 10.8102166677 2.70196369892 8.10763038065 21.6752776116 -53.6386136881 13.0465713254 0.000704518903168 -0.000704518903168 0.000704518903168
1 13.5121184282 2.70362891586 5.404442808 -38.1486707534 112.883078672 -55.7277059428 0.000704518903168 -0.000704518903168 -0.000704518903168
1 13.5128718136 16.2144436252 8.10751976964 37.189865592 -55.6459855984 1.98547025801 0.000704518903168 -0.000704518903168 0.000704518903168
1 10.811040102 16.2145304124 10.8112375223 104.018704426 -46.9672640481 123.760739017 0.000704518903168 -0.000704518903168 0.000704518903168
1 10.8095923638 2.70146650465 13.5123605906 -40.7551147609 -103.358040538 -13.9324287835 0.000704518903168 -0.000704518903168 0.000704518903168
1 13.5125001808 2.7022062348 10.8101216671 0.0265886540501 -29.3850258909 12.1752117094 0.000704518903168 -0.000704518903168 0.000704518903168
1 13.5118211625 16.2142572695 13.5124434924 -67.8752443266 -74.2815562252 -5.64225841076 0.000704518903168 -0.000704518903168 0.000704518903168
1 10.8108084683 5.40590938616 16.2143277031 80.8553351048 90.9301089602 -67.2381963646 0.000704518903168 -0.000704518903168 -0.000704518903168
1 10.8093950184 8.10670578526 2.70271125855 -60.489651843 -79.4129671957 21.1173487748 0.000704518903168 0.000704518903168 -0.000704518903168
1 13.5115040287 8.10762170357 16.2148290622 -99.5886204553 12.1788634558 -17.1022835464 0.000704518903168 0.000704518903168 -0.000704518903168
1 13.5131065759 5.40590857739 2.70288409985 60.6660938841 90.8492325366 38.4014780729 0.000704518903168 -0.000704518903168 -0.000704518903168
1 10.8085636296 5.40563220703 5.40585649625 -143.628535928 63.2121967146 85.6411184739 0.000704518903168 -0.000704518903168 -0.000704518903168
1 10.8105692576 8.10604455654 8.10734242454 56.9342660927 -145.535838898 -15.7490392913 0.000704518903168 0.000704518903168 0.000704518903168
1 13.5137340285 8.10694831608 5.40589369904 123.411360225 -55.1598851602 89.3613971836 0.000704518903168 0.000704518903168 -0.000704518903168
1 13.5141459857 5.40479775634 8.10714411205 164.607072515 -20.2328726283 -35.5802886189 0.000704518903168 -0.000704518903168 0.000704518903168
1 10.809524543 5.40466920202 10.809620228 -47.5371889059 -33.0883037108 -37.9686965728 0.000704518903168 -0.000704518903168 0.000704518903168
1 10.8099396493 8.10750646147 13.5130213652 -6.02656035814 0.654653815258 52.145027468 0.000704518903168 0.000704518903168 0.000704518903168
1 13.5117762633 8.10710698218 10.8112615034 -72.3651637196 -39.293275676 126.158842533 0.000704518903168 0.000704518903168 0.000704518903168
1 13.5124079835 5.40540403718 13.512146236 -9.1931463479 40.3952111916 -35.367890489 0.000704518903168 -0.000704518903168 0.000704518903168
1 10.8099571362 10.809929922 16.2141926578 -4.27787464082 -6.9992907769 -80.7427250405 0.000704518903168 0.000704518903168 -0.000704518903168
1 10.8104618553 13.5137669608 2.70213863569 46.1940388334 126.704587695 -36.1449376422 0.000704518903168 0.000704518903168 -0.000704518903168
1 13.5124141526 13.5121115537 0.000464479954147 -8.57623239726 -38.8361268803 46.4394887439 0.000704518903168 0.000704518903168 -0.000704518903168
1 13.5110176831 10.810071327 2.70292906321 -148.223183019 7.14120737479 42.8978146822 0.000704518903168 0.000704518903168 -0.000704518903168
1 10.8091396689 10.8095822429 5.40448955029 -86.0246016392 -41.7672047808 -51.0534774756 0.000704518903168 0.000704518903168 -0.000704518903168
1 10.8101162257 13.5130154242 8.10831001906 11.6310738166 51.5509218663 81.0104122958 0.000704518903168 0.000704518903168 0.000704518903168
1 13.5124254966 13.5113173516 5.40419741073 -7.44183700406 -118.256329902 -80.2674333143 0.000704518903168 0.000704518903168 -0.000704518903168
1 13.5121218059 10.8100805782 8.10649441458 -37.8109078302 8.06632566307 -100.550035153 0.000704518903168 0.000704518903168 0.000704518903168
1 10.811019696 10.8105256155 10.8096670013 101.978103902 52.570056433 -33.2913650801 0.000704518903168 0.000704518903168 0.000704518903168
1 10.8095715386 13.5127690676 13.5111142438 -42.8376360267 26.9152668273 -138.567115522 0.000704518903168 0.000704518903168 0.000704518903168
1 13.5140359281 13.5124419402 10.8103298764 153.601318468 -5.79747565845 32.9961451544 0.000704518903168 0.000704518903168 0.000704518903168
1 13.5131428178 10.8091792189 13.5127980807 64.2902861199 -82.0696003814 29.8165797888 0.000704518903168 0.000704518903168 0.000704518903168
108
Atom. timestep:0.997765006386
1 16.1536550702 16.1519996478 16.1608171304 -49.1206370155 -57.1296147861 -55.0863001871 0.0136427579988 0.00664058804546 -0.00109878857929
1 16.1926004816 2.74120912786 2.60559161109 -19.1139627648 26.6911710482 -81.4620429556 0.00362662953012 -0.0140095990659 0.0184105096621
1 2.72796329363 2.66104936957 0.0601638861087 23.6235572166 -41.1209312372 46.0367346313 -0.00130010249968 -0.000476246975541 -0.0162785969959
1 2.73439812639 16.1665324396 2.70232643807 24.7794905806 -34.579561946 7.15864336518 -0.00739361932949 0.0166695267493 0.00908119732243
1 0.0416790231373 0.104974851039 5.42328832833 33.7245487522 94.2698803638 13.6188688307 -0.00883439923016 -0.0118063186801 -0.00621189206539
1 16.1880895254 2.71368125469 8.05806513397 -19.5551187066 9.12794149353 -40.7153013304 0.00851754715307 -0.00271766196531 0.0103220566322
1 2.66492809891 2.78440124432 5.40218783025 -28.4603536555 73.3365944656 5.18229668239 0.0109088903487 -0.0102316190978 0.00975854702193
1 2.66140665426 16.1612967955 8.09479626568 -31.6173580047 -41.9145328248 -7.96032662861 0.0107580387165 0.0134730877741 0.00555923019837
1 16.1721839818 0.0642339594252 10.8628500233 -31.865232366 55.7660807055 46.6610810575 0.0123619447071 -0.0101507037939 -0.00732640721904
1 16.1857649644 2.66786023439 13.484253201 -23.6628315803 -22.3246637507 -17.4867019862 0.00600440613439 0.0138945725059 0.0125510354761
1 2.67791058714 2.7325707531 10.8066953226 -25.0128554395 26.6899967075 -7.28233848279 -0.000917136015285 -0.0037835779961 -0.00442911717526
1 2.77686245468 0.0209216628204 13.4594273613 62.4678244019 22.8875846633 -43.7963546613 -0.0133221357207 0.00263731748094 0.0105779997832
1 16.1038572885 5.49254307429 0.0493213715379 -94.1493046436 75.0623981314 33.6806345341 0.0187176687716 -0.0139191952282 -0.0179746921762
1 16.1415338992 8.08713143883 2.64593456125 -59.1688846931 -3.3484272109 -49.7637693756 0.016513969535 0.0207236816576 0.00817719664005
1 2.68136767257 8.08068696385 16.1864953278 -20.9716923289 -31.1551434114 -21.5974780144 -3.24479907948e-05 -0.00508531315575 0.00764587687294
1 2.64235415199 5.27707965669 2.72018927443 -48.7153070732 -101.382541305 7.66527358786 0.0133004771422 0.03106250213 -0.0123868332427
1 0.0287066691658 5.42241476997 5.36993952796 31.6474464642 15.8787873209 -31.5710132624 0.0032694153106 -0.00176128165488 0.0040681669756
1 0.000931649693777 8.0982805999 8.16187316211 1.07900954185 3.78302226597 54.2696024145 0.000498145748036 0.0158464271339 -0.000159991320125
1 2.70864171041 8.07118421998 5.41356292738 5.46894221434 -31.4896585222 -1.26760534792 -0.000561445114269 0.00508808554218 -0.0105838178744
1 2.66036934717 5.49600331172 8.18597794233 -35.6016076491 75.0570108264 60.2973153826 0.00647620195486 -0.0179005815464 -0.020905243404
1 16.1547668193 5.46324604449 10.740936634 -49.4459350382 47.4501949045 -45.9975184183 0.0121555968537 -0.0126192618352 0.0272909672375
1 16.1372066154 8.08627530419 13.5794582728 -61.5988274691 -24.4245387759 55.8242081916 0.0186236728203 -0.00388167525965 -0.0125884522232
1 2.69083416193 8.09713423134 10.8187891563 -9.84726838951 -2.83887124406 16.5383196215 0.00219437343493 0.00852954457291 0.00922087078704
1 2.80607070646 5.41321825357 13.5719679889 77.1194249078 6.97321073273 53.4683937917 -0.0296687207071 -0.0011424959274 -0.00695369636696
1 0.0969368791035 10.7967058266 16.1610601691 80.8610115005 -6.90492405755 -41.520855258 -0.0178583924342 0.00719663274412 0.0128628515978
1 0.0792797751109 13.6034121902 2.76469761645 65.7348798306 73.19334825 54.7873536274 -0.0154258246253 -0.0194215366694 -0.00853096381708
1 2.75377449684 13.5861264294 0.0518997926999 29.8614066547 65.6290275306 31.5004382773 -0.0261311303551 -0.00953458769752 -0.0236912868744
1 2.67124731363 10.9021687578 2.6148195276 -40.2908334202 73.3401498813 -67.0104729306 -0.0107417276556 -0.0212112367402 0.0242794147979
1 16.1098543679 10.7111059454 5.44198241851 -83.3975650514 -87.6949977316 26.1055736638 0.0261085246144 0.0132397518412 -0.0126547506046
1 0.0440905182784 13.5155901404 8.18912792193 36.0543722843 -1.80589197259 68.0838336176 -0.00894664155411 -0.0058879173582 -0.0151189870854
1 2.61507618348 13.4270217382 5.45171581569 -77.6827794049 -72.2262025539 43.2325858105 0.0105034970714 0.0148954121157 -0.00404169743512
1 2.74579888678 10.7955746783 8.03759808715 37.8821376079 -15.7591528597 -55.0837589868 -0.00625615646952 -0.00196686676742 0.0175586129859
1 0.0457994500174 10.8326374893 10.8542999966 41.5993569314 6.8538125776 36.8424537326 -0.00420169707846 -0.0184960257698 -0.00800120719856
1 16.1596018139 13.4582732485 13.5036220043 -37.6530846362 -46.3362408709 0.0807017339665 0.0206000407757 0.00900984524985 0.0110936519478
1 2.6899057166 13.4743991509 10.8279537251 -7.57703049922 -33.0453953998 19.8343906138 0.0062829948659 0.00579545232285 0.00247394667596
1 2.74836969538 10.7227536658 13.5365675238 44.2239402796 -75.3184456595 17.0008497384 -0.0017008786799 0.0131459277637 -0.00871996679822
1 5.3947747361 16.0742499753 0.0459512796022 -0.76401101604 -114.428502678 40.8409861722 0.0126291963668 0.0306253968892 -0.00516119214361
1 5.38778078361 2.70736927878 2.74842833839 -10.8813611149 7.85456696586 31.8041442326 0.00730363796221 0.00407360408469 -0.0161562661634
1 8.07787750533 2.59215212619 16.1848107348 -30.6640436495 -88.8886316485 -23.9642363471 -0.00244210005151 0.023485898982 0.00680611885179
1 8.13913945332 0.0145907998664 2.68011093109 28.1650621675 10.7876781713 -11.5166816788 -0.00391408415246 -0.00419502254711 0.0121948291165
1 5.41879299556 0.0846050376688 5.32707699838 7.82729106372 66.8510299277 -67.1813079112 -0.00622115943653 -0.0202983291812 0.012894765365
1 5.43595848655 2.69596940229 8.07587499886 11.6811527902 -6.07631709933 -29.0647026132 -0.0222062982103 0.000297190017328 0.00297673070395
1 8.0404849384 2.74987161663 5.45711618555 -45.7610157443 35.5199557066 41.1875637374 0.0238593858969 -0.0131555375757 -0.0123387718837
1 8.03480813791 16.1895788316 8.17102105232 -55.2604359167 -20.5796528506 60.2021051341 0.0206943922173 0.00629346816585 -0.00410634749372
1 5.44502931575 0.00156058499219 10.8669534732 30.1461513167 5.39886935195 48.4886375079 -0.011386609946 0.00430401450926 -0.0101429700091
1 5.42540581743 2.83142857635 13.5018015405 16.1954154625 103.937681522 -7.04237953225 -0.00482325298984 -0.0289986076979 0.00343943212973
1 8.0589702288 2.73360833542 10.7599415343 -39.75111002 26.4079390463 -43.815941813 0.00947860864613 -0.00495002353702 0.00710720615632
1 8.05352384136 0.0211444084082 13.4856202371 -51.5808803425 17.6527251923 -25.849181876 0.00309684995666 -0.00453981683447 0.0012705112833
1 5.46934000191 5.46011335228 16.1798676331 55.140647376 43.2220948455 -19.2833401988 -0.0103557498344 -0.013486468874 0.018486020178
1 5.33139539183 8.13837919392 2.59896671573 -73.4328605461 32.5444129827 -91.4762433996 0.000272739617738 0.00193905295062 0.0139679234933
1 8.10533006297 8.09663598702 16.181233187 -2.11238959383 -4.30101211708 -24.4016669433 0.000407261525293 0.00684337970187 0.0113008810332
1 8.05731778319 5.54052154124 2.72770471789 -40.4272937634 109.759176508 9.6410296543 0.0106214993246 -0.028656540733 -0.0183038680511
1 5.51700700016 5.45931654783 5.32748995378 87.6465287852 58.6415914414 -64.6194263937 -0.0281744763586 0.00569947628569 0.0147680789679
1 5.39925326308 8.12243966276 8.14818178494 0.380400947466 14.7464053526 35.7987846078 0.00629247182383 -0.000108770065014 -0.00517317117663
1 8.12781837489 8.239941285 5.27353893381 1.64244513504 115.379938795 -103.619854948 -0.0233459262595 -0.0211835838804 0.0328389357506
1 8.04149980698 5.4131878932 8.09056179391 -62.6615781899 15.73318072 -10.1201421782 0.00334469008139 0.00865271326964 0.00866252327577
1 5.3335863003 5.35910747878 10.7549557788 -59.9989071029 -33.9336711096 -51.3689611306 0.0128344342059 0.0133810146935 0.00433240602147
1 5.43594372075 8.0698172938 13.5001947677 29.351511822 -23.9906643934 -18.0575712288 -0.0020190316374 0.0159097918639 -0.00686267320679
1 8.25802143276 8.1065557407 10.8665118382 131.747979101 3.60590491677 51.4413689353 -0.0204011345734 0.00588964067005 -0.00610688577089
1 8.0190343258 5.43279650445 13.4945589697 -66.0380694241 20.6289790007 -19.6724130564 0.0264845982014 -0.00772300480895 -0.00272962994141
1 5.27975964361 10.858094889 0.0518276939601 -101.008349738 42.615960032 39.4974157757 0.0277075846819 -0.00613547758471 -0.0151232784217
1 5.35484698512 13.4768802532 2.68922269223 -33.9411589838 -29.8386206615 -0.799514694116 0.0186142736233 0.00662028544499 0.0152895599029
1 8.19837637915 13.5082802379 16.2065782378 77.9620303116 -5.11980771295 -5.65024735938 -0.0144352921344 -8.82272500823e-05 0.00329099474883
1 8.12145413637 10.8137568958 2.74852109007 9.78332391383 14.1897428159 20.7487751821 -0.00528413023243 0.013709625649 -0.0307313958377
1 5.35862214172 10.8634206515 5.37456991767 -43.3006391479 43.1938881638 -28.4165187724 0.00344533714532 -0.0118658058121 0.00200565249265
1 5.45149465062 13.609222536 8.1243462764 35.0004957064 82.7396542093 15.3230927973 -0.0143515746762 -0.0165629552706 -0.00118116509454
1 8.06824714159 13.4434552522 5.4805092398 -34.5052458846 -59.4022303133 66.289560206 0.00567925919449 0.0107033858119 -0.00976316328136
1 8.13142454715 10.7149013074 8.14010574709 26.54822411 -86.8071157297 29.8251572208 0.00360642642183 0.0089075268963 -0.0030240235877
1 5.47871187184 10.8955670149 10.7980614938 64.8363332189 70.7948327408 -5.57172217848 -0.0106540695154 -0.0167469698489 0.00695041816548
1 5.3884341642 13.5642855263 13.5372745007 -12.6001010582 36.1682167267 23.338345763 0.00460666732762 -0.0182454915376 -0.00190195903566
1 8.13277560479 13.438110155 10.8820971131 21.3199938488 -65.8449899169 62.6403545508 -0.00505967755403 0.0100523246118 -0.0116076718658
1 8.11977995259 10.7962041846 13.6674240033 2.52292872362 -11.4216283824 131.617914527 -0.0125114550097 0.00304304976351 -0.0271408440722
1 10.762075386 0.00855784909697 16.1585860413 -33.9628508339 5.34699499259 -54.0169306876 0.0157435322782 -0.00409450387071 0.00275039474186
1 10.8652470286 2.68343724505 2.63769996176 46.1305055713 -12.9927224236 -55.1301074292 -0.00995161512145 0.00657503621238 0.00958627182483
1 13.5825685545 2.74614105802 0.0598190923716 55.1062414389 37.7497666879 43.4189969994 -0.0177449122658 -0.00670946805337 -0.0193360419109
1 13.6054511323 16.1620933782 2.69278279523 81.6881379013 -41.0772715149 -5.07050277953 -0.0123990747644 0.0138594376312 0.00549383472917
1 10.849288454 16.0387207933 5.51087569042 32.9493468649 -149.530623915 92.0849095642 -0.00713908722098 0.0292298198888 -0.0153666985181
1 10.831467141 2.64865977107 8.12022697568 19.8622499172 -52.3769539709 11.2635321676 -0.00189217375703 0.00118230106753 -0.00190060883654
1 13.4731465164 2.80992264609 5.3492165222 -39.5646844454 93.2495807856 -53.4390762222 4.06132432962e-05 -0.015374450317 0.002703484027
1 13.5507986647 16.1608047877 8.10827478648 39.6247749108 -49.2679445252 -1.09691742907 0.00212596787816 0.00549189728953 -0.00159883749731
1 10.9069369854 16.1707309603 10.9225125443 79.41456612 -36.5496808322 84.4083719557 -0.0200110227271 0.00969208454011 -0.0344395684364
1 10.7703246775 2.6082752986 13.4997360416 -35.9659939821 -72.7422979877 -10.2400877041 0.00401169914039 0.024642155424 0.00252549398671
1 13.5110363158 2.67591082876 10.8213263893 -4.14479532842 -19.9322798051 9.07325629431 -0.00312516575952 0.00771874859931 -0.00262699403264
1 13.4493991402 16.1434639664 13.5126343159 -49.9996712705 -63.5143457202 12.0504934684 0.0164199497525 0.00880887341344 0.0145898872657
1 10.8838198343 5.4856838195 16.1504304916 57.5167070858 57.4996565092 -56.3347527992 -0.018576508925 -0.0269986452298 0.00976244731059
1 10.7560218418 8.03241987357 2.72095340245 -38.5865668108 -63.6918603061 11.9488872853 0.0182479745034 0.0130698869301 -0.00808505548449
1 13.4170094099 8.12409225793 16.2018210841 -83.2804876869 24.2796339669 -4.61904215644 0.0145735968953 0.00896178321897 0.0103911778816
1 13.5639828878 5.49289739626 2.74188188255 31.3645435567 78.5682912526 39.3954353898 -0.0235341150421 -0.0109615190943 -0.000265132823677
1 10.6732167769 5.46285342718 5.4855332829 -119.090588077 44.4718406807 66.4590454027 0.0190082992766 -0.0162075920424 -0.0173065437641
1 10.8671005982 7.96977880016 8.09370078081 55.2741771302 -116.950195524 -8.96582363923 -0.00156445281727 0.0242543544999 0.0066514387442
1 13.625396535 8.05287017338 5.4892820649 87.7629975252 -52.8995554779 71.1783348828 -0.029233695518 0.000410824806595 -0.0147541740006
1 13.6658368729 5.38379338344 8.07430328258 125.05102202 -22.0550958168 -27.8977542164 -0.0329986590374 -0.000867751610998 0.00533043204454
1 10.7654749931 5.36826082627 10.7742969577 -36.5633756412 -42.7688970582 -29.7085318611 0.00919500861847 -0.00756306401893 0.00693838280477
1 10.8027276252 8.10879943301 13.5597385321 -9.5650479637 2.6573989286 36.0338032016 -0.00274790684349 0.00183812589007 -0.0126961665733
1 13.442362178 8.07225798182 10.926767265 -63.4645962112 -26.7449783944 93.9199242462 0.00712415976561 0.00926133573135 -0.0262575781078
1 13.5016768043 5.43837925351 13.4783500638 -13.2042098411 17.8291648598 -30.1655686495 -0.0026305548419 -0.0184686526361 0.00495037295533
1 10.8068663013 10.8052051994 16.1410064809 0.0386650536459 -0.31450952302 -57.7494257575 0.00460416519717 0.0053279605167 0.0189033287293
1 10.8511797474 13.6326811544 2.66723859303 30.1057671882 103.545284148 -31.8499792657 -0.0121776348815 -0.0182908753852 0.00393266494446
1 13.5043540239 13.4711463594 0.0427572576417 -7.02071579764 -44.2648026386 34.2701142033 0.0015915912338 -0.00345291362864 -0.00938803417473
1 13.3706489167 10.812452635 2.74006401711 -125.549210446 -7.63044042512 25.930394529 0.0169015925824 -0.0127657189196 -0.0134428646152
1 10.7301873989 10.7709238667 5.35913201662 -63.7059523231 -31.2385848695 -33.4040793859 0.0195052182491 0.0100973062323 0.0148530967654
1 10.8214602852 13.5586832937 8.18922944657 10.3182824114 33.8497680469 80.889933087 -0.00151850435618 -0.0143750103741 0.000600717687588
1 13.5084465158 13.4002171541 5.33045161045 1.98534304665 -96.1858377523 -60.8855660578 0.00638040924727 0.0185307401462 0.0152003732878