108
Atom. timestep:0
1 0.000608789518579 16.2142139661 0.000125110471221 60.8704450947 -78.6118966146 12.5025406685 -0.000704518903168 -0.000704518903168 -0.000704518903168
1 16.2145649206 2.70320510485 2.70255572146 -43.5164467234 70.5019783494 5.56363939726 -0.000704518903168 -0.000704518903168 -0.000704518903168
1 2.7030718363 2.70170706288 0.00285934859682 57.1751233364 -79.3022180334 285.926351478 -0.000704518903168 -0.000704518903168 -0.000704518903168
1 2.70381583775 0.000285527663007 2.69798769288 131.575268006 28.5442597444 -451.239215775 -0.000704518903168 -0.000704518903168 -0.000704518903168
1 0.000992865783128 0.00228565815561 5.40627127337 99.2780713038 228.557307724 127.118829571 -0.000704518903168 -0.000704518903168 -0.000704518903168
1 0.000299948774465 2.69976830291 8.10325137457 29.986370881 -273.178213225 -424.854033525 -0.000704518903168 -0.000704518903168 0.000704518903168
1 2.70235120426 2.70550530825 5.40643932043 -14.8880800478 300.522317085 143.923535784 -0.000704518903168 -0.000704518903168 -0.000704518903168
1 2.69929161687 16.2122036082 8.10737075458 -320.846816957 -279.647684906 -12.9160352838 -0.000704518903168 -0.000704518903168 0.000704518903168
1 16.2146666909 0.00318281381077 10.8108274735 -33.339414659 318.272872666 82.7558543654 -0.000704518903168 -0.000704518903168 0.000704518903168
1 16.2129349467 2.70230362139 13.5109908471 -206.513831602 -19.6463670123 -150.906785791 -0.000704518903168 -0.000704518903168 0.000704518903168
1 2.70349414699 2.7028085819 10.8110664963 99.4061921707 30.8496829731 106.658131728 -0.000704518903168 -0.000704518903168 0.000704518903168
1 2.70329829145 0.000250550334371 13.5093899183 79.8206379423 25.0465269032 -310.999660144 -0.000704518903168 -0.000704518903168 0.000704518903168
1 16.2145400285 5.40468675532 0.00117460938533 -46.005657743 -31.3329736845 117.452431408 -0.000704518903168 -0.000704518903168 -0.000704518903168
1 0.000312119007593 8.10985641782 2.70548147787 31.203394186 235.650286749 298.139278743 -0.000704518903168 0.000704518903168 -0.000704518903168
1 2.6995446026 8.10688060511 0.000845063563232 -295.548244218 -61.9309825689 84.4978494088 -0.000704518903168 0.000704518903168 -0.000704518903168
1 2.70017129852 5.40599209847 2.70430244236 -232.878652728 99.201339797 180.235728285 -0.000704518903168 -0.000704518903168 -0.000704518903168
1 16.2137836132 5.40568644656 5.4045124344 -121.647180764 68.6361490728 -48.7650657528 -0.000704518903168 -0.000704518903168 -0.000704518903168
1 16.2131425807 8.10632723182 8.10686160567 -185.750436621 -117.268311123 -63.8309263066 -0.000704518903168 0.000704518903168 0.000704518903168
1 2.70333198711 8.10817374308 5.40584981972 83.1902036722 67.3828139185 84.9734648973 -0.000704518903168 0.000704518903168 -0.000704518903168
1 2.70406615551 5.40409490329 8.10870794895 156.607043433 -90.5181764428 120.803400164 -0.000704518903168 -0.000704518903168 0.000704518903168
1 16.2134369846 5.40618668047 10.8135016491 -156.310047 118.659539937 350.17341734 -0.000704518903168 -0.000704518903168 0.000704518903168
1 0.00204406502305 8.10711583978 13.5135697318 204.397994623 -38.4075150304 106.981689013 -0.000704518903168 0.000704518903168 0.000704518903168
1 2.7019665135 8.10809119478 10.8095982782 -53.35715604 59.1279836662 -40.163672835 -0.000704518903168 0.000704518903168 0.000704518903168
1 2.70270102595 5.40828867143 13.5127137266 20.0940882558 328.858634236 21.3811655782 -0.000704518903168 -0.000704518903168 0.000704518903168
1 0.000490703497414 10.8094630863 16.214354384 49.0618430538 -53.6828592215 -64.5701079072 -0.000704518903168 0.000704518903168 -0.000704518903168
1 16.2144618679 13.5127192391 2.70347964418 -53.8217128062 21.9324123401 97.9559110382 -0.000704518903168 0.000704518903168 -0.000704518903168
1 2.70180966823 13.5130506675 16.2131762218 -69.0416831368 55.0752567094 -182.386321951 -0.000704518903168 0.000704518903168 -0.000704518903168
1 2.701849225 10.8086946195 2.70243535918 -65.0860060135 -130.529537839 -6.47258783747 -0.000704518903168 0.000704518903168 -0.000704518903168
1 16.2141495755 10.8083864081 5.40615660552 -85.0509564936 -161.350681166 115.652045059 -0.000704518903168 0.000704518903168 -0.000704518903168
1 16.2140282621 13.510418499 8.10645836051 -97.1822941045 -208.141590536 -104.155442367 -0.000704518903168 0.000704518903168 0.000704518903168
1 2.70189343989 13.5085082537 5.4049745471 -60.6645174654 -399.166119213 -2.5537965502 -0.000704518903168 0.000704518903168 -0.000704518903168
1 2.7012764174 10.8079804703 8.10645668728 -122.366765609 -201.944462473 -104.322765376 -0.000704518903168 0.000704518903168 0.000704518903168
1 16.2149235087 10.8098226644 10.8095199808 -7.65763863099 -17.7250555761 -47.9934128625 -0.000704518903168 0.000704518903168 0.000704518903168
1 0.00207136884036 13.5125676054 13.5137423762 207.128376337 6.76904607864 124.246120643 -0.000704518903168 0.000704518903168 0.000704518903168
1 2.7023729045 13.5130075519 10.8084994311 -12.7180567211 50.7636977617 -150.048386353 -0.000704518903168 0.000704518903168 0.000704518903168
1 2.70268413675 10.8105819724 13.5150342792 18.4051684919 58.2057473074 253.436423495 -0.000704518903168 0.000704518903168 0.000704518903168
1 5.40727631564 0.00154682068144 0.000460896494515 227.623056654 154.67356078 46.0811427829 -0.000704518903168 -0.000704518903168 -0.000704518903168
1 5.4067011733 2.70361910325 2.70419270438 170.108822906 111.901817913 169.26193039 -0.000704518903168 -0.000704518903168 -0.000704518903168
1 8.10853140887 2.70019556777 16.2131719479 103.149392698 -230.451727728 -182.813712125 0.000704518903168 -0.000704518903168 -0.000704518903168
1 8.10597548586 16.2120924716 2.70231864546 -152.442907047 -290.761342268 -18.1439600003 0.000704518903168 -0.000704518903168 -0.000704518903168
1 5.40328206261 0.000663673075419 5.40641696191 -171.802244203 66.3588007436 141.687683677 -0.000704518903168 -0.000704518903168 -0.000704518903168
1 5.40439384456 2.70375693345 8.10705864943 -60.6240496431 125.684838198 -44.1265506039 -0.000704518903168 -0.000704518903168 0.000704518903168
1 8.10581348596 2.70227019152 5.40455844446 -168.642896763 -22.9893539991 -44.1640598862 0.000704518903168 -0.000704518903168 -0.000704518903168
1 8.10816292249 16.2133215574 8.10485298718 66.3007546846 -167.852765321 -264.692773433 0.000704518903168 -0.000704518903168 0.000704518903168
1 5.40665024848 16.2139928474 10.8113855348 165.016340812 -100.723769181 138.561980939 -0.000704518903168 -0.000704518903168 0.000704518903168
1 5.40462557642 2.70292888218 13.5128095756 -37.4508639065 42.8797114542 30.9660658706 -0.000704518903168 -0.000704518903168 0.000704518903168
1 8.1095863413 2.70299330654 10.81013669 208.642634683 49.3221472065 13.6775048702 0.000704518903168 -0.000704518903168 0.000704518903168
1 8.10835733824 0.000436941188751 13.5107956322 85.7423301027 43.6856122219 -170.428275788 0.000704518903168 -0.000704518903168 0.000704518903168
1 5.40544246473 5.40459461677 0.00236611214114 44.2379664939 -40.5468288787 236.602706226 -0.000704518903168 -0.000704518903168 -0.000704518903168
1 5.40429727353 8.10666985114 2.70368206014 -70.2811532473 -83.006379009 118.197506722 -0.000704518903168 0.000704518903168 -0.000704518903168
1 8.10692722423 8.10896740386 16.2147984012 -57.2690704824 146.748891677 -20.1683866586 0.000704518903168 0.000704518903168 -0.000704518903168
1 8.10568554671 5.4048483679 2.70299211954 -181.436821063 -15.1717167145 49.2034477008 0.000704518903168 -0.000704518903168 -0.000704518903168
1 5.40553673901 5.40324317598 5.40516892916 53.6653947716 -175.690907196 16.8844095244 -0.000704518903168 -0.000704518903168 -0.000704518903168
1 5.40317175481 8.10777793885 8.10747127667 -182.833024646 27.8023910512 -2.86382666834 -0.000704518903168 0.000704518903168 0.000704518903168
1 8.1081496481 8.10638754609 5.40539180487 64.9733158877 -111.23688433 39.1719804493 0.000704518903168 0.000704518903168 -0.000704518903168
1 8.10774048458 5.40506972546 8.10735223225 24.0569646624 6.96403923833 -14.7682687236 0.000704518903168 -0.000704518903168 0.000704518903168
1 5.40339403936 5.40547801657 10.8095542897 -160.604569063 47.7931498924 -44.5625237652 -0.000704518903168 -0.000704518903168 0.000704518903168
1 5.40342183108 8.11148588277 13.513941056 -157.825397835 398.596781045 144.114105325 -0.000704518903168 0.000704518903168 0.000704518903168
1 8.10756241983 8.10777265756 10.8081091788 6.25048930279 27.2742618121 -189.073609741 0.000704518903168 0.000704518903168 0.000704518903168
1 8.10637553753 5.4037047517 13.5132015972 -112.437740015 -129.533335345 70.1682209657 0.000704518903168 -0.000704518903168 0.000704518903168
1 5.40366095923 10.8101962343 16.2145911491 -133.912582675 19.6319348674 -40.8935927994 -0.000704518903168 0.000704518903168 -0.000704518903168
1 5.40320131009 13.5127163619 2.70315720522 -179.877495777 21.6446922874 65.7120151835 -0.000704518903168 0.000704518903168 -0.000704518903168
1 8.10806292742 13.5113457577 0.000648063033757 56.3012481659 -115.415727126 64.7977965874 0.000704518903168 0.000704518903168 -0.000704518903168
1 8.10853001472 10.8094119405 2.70086059497 103.009978103 -58.7974479885 -163.949008642 0.000704518903168 0.000704518903168 -0.000704518903168
1 5.40453881374 10.8101450369 5.40478444103 -46.1271324852 14.5121961926 -21.5644031591 -0.000704518903168 0.000704518903168 -0.000704518903168
1 5.40397565795 13.5126844739 8.10751208928 -102.442710599 18.4559003559 1.21743477635 -0.000704518903168 0.000704518903168 0.000704518903168
1 8.10969379834 13.5104627538 5.40479174392 219.388339392 -203.716115353 -20.8341144751 0.000704518903168 0.000704518903168 -0.000704518903168
1 8.10759718707 10.8090837803 8.10938588307 9.72721284529 -91.6134604801 188.596811933 0.000704518903168 0.000704518903168 0.000704518903168
1 5.40463669726 10.8084310761 10.813306238 -36.3387800722 -156.883878388 330.632304888 -0.000704518903168 0.000704518903168 0.000704518903168
1 5.40209257972 13.5126667354 13.5137350733 -290.750532421 16.6820503464 123.51583675 -0.000704518903168 0.000704518903168 0.000704518903168
1 8.10579102963 13.5108832551 10.8115970714 -170.888529585 -161.665986034 159.715647653 0.000704518903168 0.000704518903168 0.000704518903168
1 8.1060584477 10.8103675791 13.5136695467 -144.146722733 36.766419444 116.963171139 0.000704518903168 0.000704518903168 0.000704518903168
1 10.8106694374 0.000822372995477 0.00317194926026 66.9522444296 82.2287926478 317.186417622 0.000704518903168 -0.000704518903168 -0.000704518903168
1 10.8096631131 2.70184948112 2.70025104661 -33.6801802199 -65.0603939598 -224.903843583 0.000704518903168 -0.000704518903168 -0.000704518903168
1 13.5146237912 2.70134374733 16.2144942851 212.387621543 -115.633773072 -50.5800007619 0.000704518903168 -0.000704518903168 -0.000704518903168
1 13.5146341267 0.000979355461931 2.70291691768 213.421174412 97.9270391927 41.6832612053 0.000704518903168 -0.000704518903168 -0.000704518903168
1 10.8104750066 16.2145791801 5.40569921803 47.5091688268 -42.0904948842 69.9132964261 0.000704518903168 -0.000704518903168 -0.000704518903168
1 10.811507825 2.70394121954 8.10834869827 150.791003427 144.113446612 84.8783332322 0.000704518903168 -0.000704518903168 0.000704518903168
1 13.5152182167 2.70383494974 5.40593298365 271.830173055 133.486467067 93.2898577555 0.000704518903168 -0.000704518903168 -0.000704518903168
1 13.513881088 16.2140357013 8.10794638707 138.117309883 -96.4383718069 44.6472131661 0.000704518903168 -0.000704518903168 0.000704518903168
1 10.8113365862 16.2119319409 10.8081974887 133.667129365 -306.814414811 -180.242621029 0.000704518903168 -0.000704518903168 0.000704518903168
1 10.8083529479 2.70387179274 13.5135265967 -164.696707469 137.170767003 102.668174129 0.000704518903168 -0.000704518903168 0.000704518903168
1 13.5095493954 2.70267624323 10.8104444275 -295.051952213 17.6158169167 44.4512596039 0.000704518903168 -0.000704518903168 0.000704518903168
1 13.5120978138 16.2135883082 13.5129561398 -40.2101092299 -141.177682491 45.6224818162 0.000704518903168 -0.000704518903168 0.000704518903168
1 10.8088423349 5.40799645341 0.000814837860013 -115.758002742 299.636833104 81.4752791063 0.000704518903168 -0.000704518903168 -0.000704518903168
1 10.8105862361 8.10690300578 2.70202170717 58.6321196924 -59.6909156803 -47.8377886736 0.000704518903168 0.000704518903168 -0.000704518903168
1 13.5133123002 8.1077663807 0.000517739778298 81.2385210232 26.6465763489 51.7654711249 0.000704518903168 0.000704518903168 -0.000704518903168
1 13.5122643871 5.40504609698 2.70508027267 -23.5527882046 4.6011913542 258.018759029 0.000704518903168 -0.000704518903168 -0.000704518903168
1 10.809080096 5.40480383383 5.40623674381 -91.9818881919 -19.6251228641 123.665873912 0.000704518903168 -0.000704518903168 -0.000704518903168
1 10.8090150472 8.1063955634 8.10726232957 -98.4867759731 -110.435153388 -23.7585361378 0.000704518903168 0.000704518903168 0.000704518903168
1 13.5121392012 8.10657026275 5.40386896717 -36.0713697624 -92.9652184172 -113.111789059 0.000704518903168 0.000704518903168 -0.000704518903168
1 13.5138036931 5.40526718701 8.10621976945 130.377813108 26.710194096 -128.014547774 0.000704518903168 -0.000704518903168 0.000704518903168
1 10.8123884593 5.40561110113 10.8089867488 238.854438084 61.1016065895 -101.316614734 0.000704518903168 -0.000704518903168 0.000704518903168
1 10.8093007239 8.10947378451 13.5125944011 -69.9191068407 197.386956378 9.44861802269 0.000704518903168 0.000704518903168 0.000704518903168
1 13.5131937279 8.10609974929 10.8085093026 69.3812938153 -140.016563753 -149.061234258 0.000704518903168 0.000704518903168 0.000704518903168
1 13.516502684 5.40357963969 13.5127680004 400.276902969 -142.044536039 26.8085494246 0.000704518903168 -0.000704518903168 0.000704518903168
1 10.8092593121 10.8114625681 16.2148967635 -74.0602798801 146.265313925 -10.332157025 0.000704518903168 0.000704518903168 -0.000704518903168
1 10.8105974893 13.5122782286 2.704081121 59.7574387304 -22.16863371 158.103592487 0.000704518903168 0.000704518903168 -0.000704518903168
1 13.5109095746 13.5126670729 16.2131032896 -159.034033413 16.7157938167 -189.679546658 0.000704518903168 0.000704518903168 -0.000704518903168
1 13.5127478622 10.8110458017 2.7042042985 24.7947269844 104.588676755 170.421343032 0.000704518903168 0.000704518903168 -0.000704518903168
1 10.8107465555 10.8069554999 5.40419027929 74.6640530545 -304.441503393 -80.9805765426 0.000704518903168 0.000704518903168 -0.000704518903168
1 10.8127157737 13.5114015919 8.10861138447 271.585875772 -109.83230239 111.146952776 0.000704518903168 0.000704518903168 0.000704518903168
1 13.5123555282 13.5126241109 5.40524369157 -14.4386725394 12.4196012074 24.3606502239 0.000704518903168 0.000704518903168 -0.000704518903168
1 13.5112728296 10.812207838 8.10732703307 -122.708535776 220.79230618 -17.2881867705 0.000704518903168 0.000704518903168 0.000704518903168
1 10.8115265074 10.8069721969 10.8105020596 152.659240477 -302.771802613 50.2144680066 0.000704518903168 0.000704518903168 0.000704518903168
1 10.80917127 13.5122896339 13.5124138092 -82.8644980304 -21.0281063149 -8.61056974604 0.000704518903168 0.000704518903168 0.000704518903168
1 13.511736869 13.5130193044 10.8093298838 -76.3045928653 51.9389490262 -67.0031089412 0.000704518903168 0.000704518903168 0.000704518903168
1 13.5102636765 10.81032721 13.5117420236 -223.623845824 32.729505819 -75.7891360155 0.000704518903168 0.000704518903168 0.000704518903168
108
Atom. timestep:0.997765006386
1 0.0563916606237 16.1404499379 0.00487294545958 43.1290895904 -63.4256094873 -10.0414682007 -0.017870715139 0.0131147329764 -0.016811066533
1 16.1797224169 2.76933756055 2.71178255064 -17.7240823839 58.0143899199 16.8074227892 0.0208899478544 -0.00893490885093 0.00932947296556
1 2.75773125762 2.64598043799 0.258321858075 50.9994104937 5.25084842098 189.431415353 -0.003805816516 0.0917723708456 -0.0874976036576
1 2.82921670517 0.0176154423265 2.29221359287 114.639536494 -18.893337812 -309.851096591 -0.0112804763693 -0.0609947818852 0.124563103599
1 0.101377044553 0.187359571575 5.48912287323 98.6615187402 74.4154423438 -33.7196316011 -0.00474912472767 -0.161001030962 -0.17275637948
1 0.0345044523995 2.47226501395 7.74436204742 47.1045574387 -115.86037705 -198.357217933 0.0205734994592 0.159426740726 0.229112215206
1 2.6908265265 2.98604905969 5.53147055071 -3.7631373199 242.227296068 85.5469572643 0.00972112041831 -0.0456858540246 -0.0494516513913
1 2.40155979073 15.9466276543 8.09787112393 -252.322893979 -239.270523255 -3.41001420529 0.0538523644485 0.0312727057103 0.00607647439907
1 16.1756570157 0.299621360374 10.8823365233 -49.3310297051 252.153574449 43.9926264017 -0.0112214285069 -0.0569225356587 -0.0409589237109
1 16.034264556 2.67443210704 13.3776933066 -120.643435498 -49.4363329986 -96.6435043969 0.0734154538988 -0.0301825896574 0.0474430436785
1 2.79396520845 2.73681509796 10.9065468361 74.3679880312 41.6281201683 74.2204100895 -0.0183255520951 0.0112336752964 -0.0254897804426
1 2.77611111611 0.0295426824964 13.2228246173 57.0689967284 34.5159233733 -239.283521018 -0.0207828447577 0.00249755404058 0.0559331855205
1 16.1725541401 5.37304329949 0.120752472704 -34.5876377299 -31.7696987311 122.990010107 0.00831361714364 0.00014944774567 0.00354384360313
1 0.022869065032 8.32760785361 2.98249464125 5.28812877573 176.519559058 230.34102626 -0.0213842090959 -0.0572563100096 -0.0629404936797
1 2.42637801636 8.04572314063 0.0970496331399 -226.534037378 -58.7240519549 122.083468111 0.0585216810702 0.00373718384352 0.0344478384632
1 2.48097751297 5.50410987063 2.87713378764 -190.864730161 96.514130568 155.964882455 0.0358926411091 -0.000978638440129 -0.023177666968
1 16.1105894047 5.47858299441 5.36334551081 -64.7857495203 80.7998394101 -25.6987508095 0.0479734854526 0.00921276353264 0.0191950272249
1 16.0419999756 7.99524384606 8.04626470194 -137.745001819 -94.7954923638 -54.3248960172 0.0455723823689 0.0244972293407 0.00737390707612
1 2.77949427781 8.16150699707 5.48756891909 60.4561537119 24.2474390727 70.9114406703 -0.0207625867634 -0.0363346606159 -0.0185012307766
1 2.83350764004 5.32636923005 8.22510181291 75.199496759 -49.8641828844 106.214974709 -0.0663156659572 0.0363408376379 -0.0137063875558
1 16.084880149 5.51192805713 11.1206456956 -58.7160647035 83.6988887402 210.430067508 0.101447861455 -0.0232039273503 -0.131529528441
1 0.182950581822 8.08593198964 13.6130195324 129.723445047 15.1922894103 82.7312012335 -0.0674156007261 0.0464617081714 -0.0225893494744
1 2.64466455247 8.1670634443 10.7708810642 -64.8801222713 57.1263970349 -35.056737063 -0.00865246935267 -0.00376253087549 0.00514671192968
1 2.73073492632 5.71077861003 13.5398749473 48.6289678581 249.440690399 35.3599047114 0.0301401813173 -0.0657068584118 0.00689050465971
1 0.0349858166423 10.765461214 16.1596842159 5.62908832796 -24.2363227082 -34.1112578036 -0.0351051556451 0.024769936989 0.0258844119256
1 16.1670507955 13.5326364596 2.79667392222 -33.9176923121 16.0471116387 83.8709547703 0.0169417730502 -0.00463877792329 -0.0111332278947
1 2.63894545068 13.5692761437 16.0566383336 -50.1594344458 58.7037162579 -96.5293153737 0.0156698444298 0.00291781909141 0.0830284239737
1 2.64106411512 10.6880917049 2.69234319082 -49.1455094952 -99.6863989366 -17.4327246659 0.017512386534 0.0265603555058 -0.00894701513519
1 16.1258754433 10.6569508882 5.5219245947 -95.1560079451 -127.336381657 120.656115333 -0.00939390714617 0.034603662091 0.011787910457
1 16.1211651746 13.3126510056 8.00900879993 -82.4881738452 -177.571360189 -84.8395095591 0.0144512443971 0.02432359438 0.0152667154708
1 2.63590591498 13.1334087668 5.4008295105 -76.3600672871 -328.912420779 -4.28992245438 -0.012793405083 0.055083733467 0.00200176827122
1 2.58324358972 10.61807846 8.01758253524 -111.095034788 -163.552912926 -56.2772996001 0.00647154525464 0.0347828672704 0.0419671008771
1 16.2040777064 10.791965961 10.768262229 -17.262413433 -17.9272828765 -28.723411772 -0.00797435884317 6.05183526517e-05 0.0140040892801
1 0.189197703905 13.5195331398 13.6171805719 143.562289872 8.33501383607 59.0613514374 -0.0577521991424 0.00262378140386 -0.0580775198257
1 2.68522207314 13.5502417669 10.6679401344 -24.8634501155 8.94773903544 -117.950458947 -0.00824806449753 -0.0362549191785 0.0321199852416
1 2.70653720523 10.8646024157 13.7461069373 -28.9313947992 44.1245891971 184.470025505 -0.0438103601282 -0.0130813680228 -0.0586143501493
1 5.62321242096 0.142714856276 0.0337966531985 189.91498873 112.757119946 6.97939454012 -0.0358392313756 -0.0367872536635 -0.0324052894451
1 5.55812926243 2.79930583056 2.85940283478 108.702195824 57.0305619735 120.811655103 -0.0584778011835 -0.0530662268876 -0.0487824725231
1 8.20366101697 2.48791242928 16.0493884463 78.2454921796 -174.150991208 -124.524335135 -0.0201908188403 0.0485872096122 0.0493455272694
1 7.96265505705 15.9349016275 2.69768554125 -123.202026906 -250.766409424 23.2663701899 0.0262595318205 0.0311249615997 0.0349816087777
1 5.22714398395 0.0602883783512 5.53953705272 -184.043386321 48.870758734 116.680544706 -0.00881407642898 -0.0106057099945 -0.0187942211536
1 5.35250498338 2.80982859934 8.07658869068 -31.9699127676 68.0301582568 -3.80929570647 0.0261701742687 -0.0451715822356 0.0316434677906
1 7.96074371789 2.67255353831 5.36783568817 -95.1062531607 -44.2038630614 -17.0396471361 0.0641064734978 -0.0186490135193 0.029497637743
1 8.17228831278 16.0508481576 7.85850294664 57.7218067934 -153.050838069 -211.607862885 -0.010208784989 0.00984406635801 0.0402220992961
1 5.56661778104 16.1229708497 10.9305602718 149.13692099 -72.9739792568 82.1739010622 -0.0143738320333 0.0204463569561 -0.0437753318292
1 5.36678577665 2.74701127646 13.5442105977 -38.4229163108 44.6853314437 32.9801115158 -0.000612591740194 -0.000978376166571 0.00256784691255
1 8.30864108636 2.74974151065 10.8149000019 180.804240106 42.5437312404 -11.2792079658 -0.0208700632663 -0.0039088460912 -0.0176961860476
1 8.19669124392 0.0348948198867 13.3505725367 94.4878177258 18.0246180687 -140.731558107 0.00924393461333 -0.0178610363287 0.0228256113099
1 5.43991002586 5.36769755133 0.224673656895 14.4086482654 -30.5981055994 192.019688642 -0.0254262779917 0.00683015213713 -0.038841280997
1 5.33529277367 8.03002021802 2.81666964458 -65.8577432611 -64.2758722296 103.277968758 0.00419393086235 0.0145924441611 -0.0111210115242
1 8.04557358882 8.24633431975 16.196134566 -69.1012422743 117.207562031 -16.622840099 -0.0093883204879 -0.0261606906467 0.00125149060559
1 7.94758463123 5.39454898918 2.749449943 -107.276947272 2.57989026846 43.09183342 0.0661824976302 0.0190809004057 -0.00145354755086
1 5.45377121534 5.25323258817 5.42630552004 38.1101983834 -94.779033371 31.4038334268 -0.0111947581157 0.0711478411416 0.0140797235154
1 5.23715070744 8.13387882273 8.10487233977 -130.377681237 22.3724672516 0.124059648683 0.0455455858298 -0.00488693175844 0.00591466123736
1 8.16185851274 8.00368855083 5.44073156342 30.6754876496 -86.3100322697 27.4382154492 -0.0281798930551 0.0193457390429 -0.00991784625777
1 8.12443161458 5.40758920343 8.09802923573 1.55053162064 -7.60205833626 1.69055553739 -0.0186012163779 -0.0133917787079 0.0134317134119
1 5.26136538164 5.45798579511 10.7762222292 -103.673366733 61.0826680386 -9.47915776018 0.0481083052177 0.0100065711429 0.0307224990088
1 5.25338407835 8.46493023209 13.6611715466 -135.28562445 251.239266934 159.510449263 0.0179601028613 -0.139409630309 0.0229567856408
1 8.10803312645 8.12285826147 10.6403145448 -11.0177791522 -10.7311049707 -124.848823518 -0.0138580821607 -0.0332876670434 0.0532116290984
1 7.99312053505 5.29444608916 13.5777450495 -114.958053609 -71.5874131299 55.8048819112 -0.00202925790895 0.0430250893305 -0.00826707979982
1 5.27402491647 10.835103574 16.197196893 -118.022738857 40.1443981252 34.9976058297 0.0174499767974 0.0239425759828 0.0698022041406
1 5.22950730842 13.5268461892 2.76404614171 -162.655702672 -1.09774866465 52.0410614837 0.0118627779864 -0.0188419281182 -0.00975364930836
1 8.15541632893 13.4088365337 0.0595812610542 28.655156004 -75.8213502856 47.5921247703 -0.0237362865861 0.0335613549818 -0.0133983028956
1 8.2006022351 10.7508903699 2.55272069074 71.0191705982 -57.2825879896 -114.12608049 -0.0245332681951 0.00238720150526 0.0442454499186
1 5.37252966583 10.8193804297 5.38362188799 -3.88057444497 -1.4983514566 -19.5251868837 0.0339857629838 -0.0135644935217 0.00247736516886
1 5.3080133055 13.5222454637 8.10847325224 -82.9955364699 -5.70809293287 -0.789878641762 0.0157197683564 -0.0162061222495 -0.00342252454041
1 8.31776090159 13.304822123 5.38900159866 186.831416076 -210.227033521 -4.97384472138 -0.0246080088002 -0.00636442822984 0.0138787315826
1 8.11572067587 10.7271708222 8.28472259475 4.73027911415 -59.6062035861 146.714676456 -0.00395306666937 0.0302544476643 -0.0373033770833
1 5.36159914864 10.6702324515 11.1141437327 -54.7812389687 -94.1839465792 233.13156824 -0.0125511894714 0.0614112323703 -0.0932077630544
1 5.13489211292 13.5322199791 13.6310650475 -216.054987446 24.6316356835 99.5672240756 0.0673355653269 0.00552794674798 -0.0279689913029
1 7.94437944776 13.3499333313 10.9620612251 -144.022418806 -158.313929228 133.176547733 0.0195833442056 0.00432941096784 -0.0200550058343
1 7.97236520918 10.8490818735 13.6257996403 -111.199466677 43.4524985768 104.078970749 0.0283638611224 0.00605824438844 -0.0077256163469
1 10.8767132816 0.0636617340387 0.296789228017 66.3465398894 16.4491025298 243.276773443 0.00241618173839 -0.0661519120819 -0.0655768043204
1 10.7768879698 2.65146329949 2.49901563845 -30.9551926855 -12.0142469492 -150.364408872 0.00205640211148 0.0578554816805 0.0669373384775
1 13.7113439987 2.59307168662 16.1677607248 166.566085456 -96.9253860659 -38.9334011678 -0.0359287604442 0.0105734000367 0.00995828433155
1 13.718281552 0.093103937001 2.74899630296 183.274645059 80.8365702632 54.5142893823 -0.0259799878401 -0.0134578701841 0.00938658735318
1 10.863425904 16.1831980005 5.46966412368 64.0859395216 -13.0106249673 51.8407021959 0.0142558318029 0.0198471087059 -0.015143611933
1 10.9530519865 2.83380978563 8.17921778158 121.76071419 102.634615833 40.5923804481 -0.0258668364661 -0.0316122622786 -0.0397591317594
1 13.7511928786 2.82401158572 5.48528156275 157.207105171 92.3754371661 45.5381969214 -0.103029716957 -0.0352495274586 -0.0474283232028
1 13.6477438669 16.1250714314 8.14705954782 125.912654525 -74.7330361781 27.83449569 -0.00864830482501 0.0167661223292 -0.0139638048685
1 10.9272312604 15.9283575072 10.6379768699 76.1932664715 -231.830294265 -148.380815774 -0.0528586106414 0.0698298269044 0.0291420558885
1 10.6684247643 2.835614107 13.6123087723 -87.5056127459 123.600319719 88.6234799517 0.0669769980311 -0.00697761502648 -0.0156698034382
1 13.2333591278 2.71286487579 10.8544547446 -236.506150776 -7.94199534019 49.9551348753 0.0512513802736 -0.025664018511 0.0149620354139
1 13.4686926373 16.0811247409 13.5531493948 -47.9452929462 -113.32400059 27.7636689477 -0.00381181885545 0.0252297575402 -0.0172970404951
1 10.7008732248 5.68866338232 0.0734943485723 -96.0689670832 241.673151701 52.5607451235 0.0112802057518 -0.0495428700417 -0.0281365548464
1 10.8641661199 8.05232420305 2.65737130543 43.5027334276 -41.6074818954 -35.7735082958 -0.0118588254024 0.0191065012564 0.0142153227463
1 13.5940955042 8.13626225949 0.0525519508231 79.2059297595 31.5342099821 51.8762534609 -0.0024181700688 0.002927479237 -0.000433731837951
1 13.484901745 5.40515199453 2.93925157564 -36.879494726 -10.7890982122 184.052529061 -0.0136369458841 -0.0157983275411 -0.0642118708788
1 10.7216941649 5.37787170938 5.51752303184 -76.7981926837 -40.7724017465 86.2563846839 0.0141355867904 -0.0158932652388 -0.0307282565256
1 10.7252405134 8.00236170725 8.08158279067 -54.648686756 -90.636966756 -28.5928084575 0.0347722719666 0.0169605522824 -0.00285062947176
1 13.4714287683 8.0213288208 5.30531965668 -49.996689142 -68.9279980003 -67.7752042398 -0.0105261051937 0.0207981352656 0.0392617077588
1 13.6382500346 5.42482232106 7.98774708642 106.965188254 3.13010377728 -97.3820850335 -0.027723076951 -0.0226304092187 0.0277855800508
1 11.0353367438 5.47331923672 10.7214400901 188.304448711 80.2133273513 -61.7974950345 -0.0454606086681 0.0147824124347 0.029489975315
1 10.7398354959 8.28508996719 13.526058911 -71.7852751185 132.042699368 26.4561774131 -0.00604743884247 -0.0535995836111 0.0214547251606
1 13.5805046099 7.98038318801 10.6708862969 61.1580890063 -94.4182281071 -115.428337637 -0.0085253914213 0.0412302939997 0.0262998828915
1 13.866217739 5.28180848361 13.5583416055 232.905834474 -76.9399609881 96.599747056 -0.160997189764 0.0594570090286 0.0787375562261
1 10.7465071037 10.9458722012 16.2082228896 -38.7947097791 109.059784659 -1.28747079125 0.0306428451101 -0.0324642372987 0.00460888007955
1 10.8742007201 13.4909983224 2.8532263314 70.0935877762 -19.2939283818 129.372761487 0.00683518497787 0.00235341403033 -0.0260953401609
1 13.3644215391 13.5255923187 16.0407438675 -121.980057823 4.32416396612 -137.515971357 0.0294871798894 -0.0117896592726 0.0428404918726
1 13.5374224796 10.911038023 2.85854246998 24.3940898476 89.7024822236 123.038716858 -2.69430968795e-05 -0.013702965534 -0.0369400128244
1 10.878522601 10.5170246571 5.33116630822 52.8732428336 -259.41599503 -56.9552572404 -0.0194834081722 0.0392585716621 0.0196612377455
1 11.0507612508 13.4028043087 8.20558454244 160.718504202 -97.4279057759 62.8240133203 -0.106816289616 0.0241595888659 -0.0474513212054
1 13.5021780122 13.5291685609 5.42714310533 -2.69370010348 25.0544214113 17.2590495342 0.00850185416099 0.010579515384 -0.00506865192744