108
Atom. timestep:0
1 0.00124046923246 0.00014501762435 16.2136125068 124.038416079 14.4932559686 -138.757826828 -0.000704518903168 -0.000704518903168 -0.000704518903168
1 0.000273761733459 2.70182006979 2.70337117501 27.3676667972 -68.0015273043 87.1089943476 -0.000704518903168 -0.000704518903168 -0.000704518903168
1 2.7016754527 2.70051233435 0.00102307408401 -82.4632361438 -198.77507004 102.298901373 -0.000704518903168 -0.000704518903168 -0.000704518903168
1 2.70085379061 16.2137368683 2.70236068053 -164.629444731 -126.321676916 -13.9404532559 -0.000704518903168 -0.000704518903168 -0.000704518903168
1 16.2146882881 0.000364604392786 5.40337514539 -31.1796928603 36.4519326717 -162.4939663 -0.000704518903168 -0.000704518903168 -0.000704518903168
1 16.2148978141 2.70216456667 8.10687475394 -10.2270973852 -33.5518393724 -62.5160991803 -0.000704518903168 -0.000704518903168 0.000704518903168
1 2.70414324143 2.7021410261 5.40749286813 164.315635159 -35.9058959136 249.278305068 -0.000704518903168 -0.000704518903168 -0.000704518903168
1 2.70152574062 0.0013011372724 8.10769440535 -97.4344439725 130.105220034 19.4490411515 -0.000704518903168 -0.000704518903168 0.000704518903168
1 0.00155852896794 16.2122884404 10.8090553969 155.844389423 -271.164468004 -94.4518055148 -0.000704518903168 -0.000704518903168 0.000704518903168
1 16.2121019519 2.70271281372 13.5138672214 -289.81331593 21.2728653199 136.730647496 -0.000704518903168 -0.000704518903168 0.000704518903168
1 2.70231188099 2.7022381097 10.8086436182 -18.8204077324 -26.1975357186 -135.629673225 -0.000704518903168 -0.000704518903168 0.000704518903168
1 2.70346471515 0.00182518529625 13.5138507877 96.4630077432 182.510022084 135.087271202 -0.000704518903168 -0.000704518903168 0.000704518903168
1 0.00260908783239 5.4046888349 16.2146332465 260.900275196 -31.12501574 -36.6838551042 -0.000704518903168 -0.000704518903168 -0.000704518903168
1 0.00109524979236 8.10768487674 2.70310406171 109.516472162 18.4961800839 60.3976640665 -0.000704518903168 0.000704518903168 -0.000704518903168
1 2.70252388594 8.1070096383 16.2129531398 2.38008785812 -49.0276632893 -204.694521798 -0.000704518903168 0.000704518903168 -0.000704518903168
1 2.70370413215 5.40380357175 2.70186690456 120.404708089 -119.651330823 -63.3180501969 -0.000704518903168 -0.000704518903168 -0.000704518903168
1 0.000539161378763 5.40498323661 5.40759033059 53.9076311577 -1.68484496945 259.024550885 -0.000704518903168 -0.000704518903168 -0.000704518903168
1 16.2137228321 8.10922162559 8.10972897005 -127.725298554 172.17106405 222.905509637 -0.000704518903168 0.000704518903168 0.000704518903168
1 2.70277802366 8.10740823767 5.40387340237 27.7938595144 -9.16772615338 -112.668268517 -0.000704518903168 0.000704518903168 -0.000704518903168
1 2.70358369569 5.40352570099 8.10466110198 108.361061733 -147.43840633 -283.88129348 -0.000704518903168 -0.000704518903168 0.000704518903168
1 16.2128914625 5.40632126288 10.8085834812 -210.862258005 132.117780649 -141.643376966 -0.000704518903168 -0.000704518903168 0.000704518903168
1 0.00117789496638 8.1073395848 13.5129811738 117.780989511 -16.0330133358 48.1258889475 -0.000704518903168 0.000704518903168 0.000704518903168
1 2.7015147163 8.10972082559 10.8078506086 -98.5368753604 222.091063645 -214.930635347 -0.000704518903168 0.000704518903168 0.000704518903168
1 2.70035066726 5.40712879578 13.5136050912 -214.941778837 212.871070693 110.517624362 -0.000704518903168 -0.000704518903168 0.000704518903168
1 16.2136663185 10.8094673573 16.2132465305 -133.376659669 -53.2557608613 -175.35545247 -0.000704518903168 0.000704518903168 -0.000704518903168
1 16.2144120451 13.513709065 2.70326624447 -58.8039922867 120.915003304 76.6159400918 -0.000704518903168 0.000704518903168 -0.000704518903168
1 2.70323200566 13.51171971 16.2141472747 73.1920588534 -78.0204922336 -85.2810329534 -0.000704518903168 0.000704518903168 -0.000704518903168
1 2.70148129144 10.8096572504 2.70078522698 -101.879361877 -34.2664562072 -171.485807638 -0.000704518903168 0.000704518903168 -0.000704518903168
1 0.00231472985007 10.8108823131 5.40757097887 231.464477152 88.2398148158 257.089379101 -0.000704518903168 0.000704518903168 -0.000704518903168
1 16.2131973642 13.5129770844 8.10804118117 -180.272080884 47.7169468906 54.1266226242 -0.000704518903168 0.000704518903168 0.000704518903168
1 2.70018291438 13.5105378735 5.40513425771 -231.717067235 -196.20414371 13.4172644737 -0.000704518903168 0.000704518903168 -0.000704518903168
1 2.70282107579 10.8074634831 8.1060309383 32.0990722653 -253.643186263 -146.897662551 -0.000704518903168 0.000704518903168 0.000704518903168
1 16.2139291375 10.8098454003 10.8098684948 -107.094753469 -15.4514638763 -13.1420182909 -0.000704518903168 0.000704518903168 0.000704518903168
1 16.2148230277 13.5144629464 13.5123943337 -17.7057348883 196.303147777 -10.5581282027 -0.000704518903168 0.000704518903168 0.000704518903168
1 2.70340687926 13.5140732414 10.8092668849 90.6794186444 157.332650253 -73.3029990037 -0.000704518903168 0.000704518903168 0.000704518903168
1 2.70283418327 10.8090886735 13.5131555148 33.4098205598 -91.1241435051 65.5599906719 -0.000704518903168 0.000704518903168 0.000704518903168
1 5.40627788735 0.00185803020203 0.00068682119386 127.780227585 185.79451264 68.6736125729 -0.000704518903168 -0.000704518903168 -0.000704518903168
1 5.40441413218 2.70185414428 2.7036816331 -58.5952881424 -64.5940775111 118.154802898 -0.000704518903168 -0.000704518903168 -0.000704518903168
1 8.1064279886 2.70249301116 0.00161005521371 -107.192632906 -0.707390145005 160.997013967 0.000704518903168 -0.000704518903168 -0.000704518903168
1 8.11056252394 0.00199306535065 2.70408357876 306.260898754 199.298027416 158.349368579 0.000704518903168 -0.000704518903168 -0.000704518903168
1 5.40240026796 0.000846320455897 5.40535803063 -259.98170896 84.6235386745 35.7945559771 -0.000704518903168 -0.000704518903168 -0.000704518903168
1 5.40501159938 2.70171745973 8.10707025716 1.15143195103 -78.2625325344 -42.9657772727 -0.000704518903168 -0.000704518903168 0.000704518903168
1 8.10618313933 2.70091694378 5.40460383039 -131.677559396 -158.314127552 -39.6254669555 0.000704518903168 -0.000704518903168 -0.000704518903168
1 8.10588335467 0.000177292255835 8.1091843907 -161.656025434 17.7207190965 168.447575035 0.000704518903168 -0.000704518903168 0.000704518903168
1 5.40511027745 0.00272290433835 10.8101834063 11.0192386489 272.281925719 18.3491382919 -0.000704518903168 -0.000704518903168 0.000704518903168
1 5.40514778436 2.70306747273 13.5098963779 14.7699294334 56.7387661783 -260.353703866 -0.000704518903168 -0.000704518903168 0.000704518903168
1 8.10753089671 2.70097297142 10.808589489 3.09817754293 -152.711363796 -141.042588716 0.000704518903168 -0.000704518903168 0.000704518903168
1 8.1066131352 0.00230030925557 13.5112453792 -88.6779733319 230.022417712 -125.453574156 0.000704518903168 -0.000704518903168 0.000704518903168
1 5.40573296367 5.40491337721 0.00182933023947 73.2878597155 -8.67078544852 182.924516403 -0.000704518903168 -0.000704518903168 -0.000704518903168
1 5.40449536327 8.10575911473 2.70694383111 -50.4721791476 -174.080019866 444.374601829 -0.000704518903168 0.000704518903168 -0.000704518903168
1 8.1072920377 8.1077454138 0.000934276978745 -20.787723655 24.5498858032 93.419190903 0.000704518903168 0.000704518903168 -0.000704518903168
1 8.10823002723 5.40464071 2.70411017379 73.0112285565 -35.9375062368 161.008871441 0.000704518903168 -0.000704518903168 -0.000704518903168
1 5.40835354 5.40453756033 5.40699523275 335.345491149 -46.2524735206 199.514767782 -0.000704518903168 -0.000704518903168 -0.000704518903168
1 5.40489709964 8.10809119732 8.1057354999 -10.2985423404 59.1282381682 -176.44150242 -0.000704518903168 0.000704518903168 0.000704518903168
1 8.10961126377 8.10719522805 5.40481834613 211.134881915 -30.468688414 -18.1738937214 0.000704518903168 0.000704518903168 -0.000704518903168
1 8.10747570123 5.40569608155 8.10665953022 -2.42137011799 69.5996485164 -84.0384707988 0.000704518903168 -0.000704518903168 0.000704518903168
1 5.40329533154 5.4026043771 10.811725792 -170.475351773 -239.570795191 172.587708269 -0.000704518903168 -0.000704518903168 0.000704518903168
1 5.40755581164 8.10757838732 13.5111865503 255.572655798 7.84723804323 -131.336467592 -0.000704518903168 0.000704518903168 0.000704518903168
1 8.10686325247 8.1089116057 10.8084673862 -63.6662462887 141.169075498 -153.252874001 0.000704518903168 0.000704518903168 0.000704518903168
1 8.10648955715 5.40437083182 13.5124553486 -101.035777498 -62.9253241391 -4.4566373321 0.000704518903168 -0.000704518903168 0.000704518903168
1 5.40678793419 10.8102932919 0.00138403134722 178.784911242 29.3377006628 138.394627462 -0.000704518903168 0.000704518903168 -0.000704518903168
1 5.40496377626 13.513064418 2.70174549413 -3.63088016042 56.4503102323 -75.4590928336 -0.000704518903168 0.000704518903168 -0.000704518903168
1 8.1069665168 13.5128413099 0.000284562833829 -53.3398134852 34.1394971591 28.4477768273 0.000704518903168 0.000704518903168 -0.000704518903168
1 8.10919143675 10.8107523916 2.7025222678 169.152179837 75.2476635815 2.21827349652 0.000704518903168 0.000704518903168 -0.000704518903168
1 5.405993625 10.8113939483 5.40660811574 99.3539925732 139.40333493 160.803066779 -0.000704518903168 0.000704518903168 -0.000704518903168
1 5.40373112301 13.5128041128 8.10541627667 -126.896204732 30.4197891493 -208.363825178 -0.000704518903168 0.000704518903168 0.000704518903168
1 8.10979354514 13.5116765798 5.40848990203 229.363018941 -82.3335088708 348.981694832 0.000704518903168 0.000704518903168 -0.000704518903168
1 8.10842624256 10.8101566924 8.10817178656 92.6327616041 15.677745375 67.187161739 0.000704518903168 0.000704518903168 0.000704518903168
1 5.40678016159 10.8100634994 10.8098586506 178.007651727 6.35844635451 -14.1264286999 -0.000704518903168 0.000704518903168 0.000704518903168
1 5.40338889453 13.5115664922 13.5127192451 -161.119052 -93.3422736413 21.9330144546 -0.000704518903168 0.000704518903168 0.000704518903168
1 8.10500455085 13.5121703955 10.8097555558 -249.536407368 -32.9519447283 -24.4359141341 0.000704518903168 0.000704518903168 0.000704518903168
1 8.10834347579 10.8094471897 13.5126301586 84.3560850869 -55.2725235707 13.0243682806 0.000704518903168 0.000704518903168 0.000704518903168
1 10.8114124563 16.2145444749 0.00310057973822 141.254132841 -45.5610177564 310.049465464 0.000704518903168 -0.000704518903168 -0.000704518903168
1 10.8081220748 2.70158306105 2.69992091317 -187.784013199 -91.7024005856 -257.91718757 0.000704518903168 -0.000704518903168 -0.000704518903168
1 13.5135315001 2.70449606092 16.2142249417 103.158518798 199.597584467 -77.514339499 0.000704518903168 -0.000704518903168 -0.000704518903168
1 13.5133103163 16.2142059408 2.70132341052 81.0401400364 -79.4144298774 -117.667454034 0.000704518903168 -0.000704518903168 -0.000704518903168
1 10.8080506592 0.000234658581336 5.40366806744 -194.925577371 23.4573516099 -133.201761286 0.000704518903168 -0.000704518903168 -0.000704518903168
1 10.8121586006 2.70398543066 8.10723382343 215.868563171 148.534559037 -26.6091506588 0.000704518903168 -0.000704518903168 0.000704518903168
1 13.5116986255 2.70311963768 5.40218820984 -80.1289464793 61.9552613624 -281.187520198 0.000704518903168 -0.000704518903168 -0.000704518903168
1 13.5123670612 0.00017468703984 8.10823923043 -13.2853771351 17.4601974986 73.9315491665 0.000704518903168 -0.000704518903168 0.000704518903168
1 10.8109033718 0.00113817126217 10.8112562691 90.3456890251 113.808619115 125.635412447 0.000704518903168 -0.000704518903168 0.000704518903168
1 10.811343923 2.70022203091 13.5134924314 134.40080483 -227.805413656 99.251647499 0.000704518903168 -0.000704518903168 0.000704518903168
1 13.5110160872 2.70267325442 10.811582039 -148.382768488 17.3169352317 158.212408737 0.000704518903168 -0.000704518903168 0.000704518903168
1 13.5124987751 0.00102725941098 13.5102192998 -0.113979946029 102.717434067 -228.061510709 0.000704518903168 -0.000704518903168 0.000704518903168
1 10.8117069648 5.40457907953 16.2133040838 170.704987767 -42.1005535947 -169.600122823 0.000704518903168 -0.000704518903168 -0.000704518903168
1 10.8117566346 8.10720798358 2.70187015629 175.671963595 -29.1931356487 -62.9928768848 0.000704518903168 0.000704518903168 -0.000704518903168
1 13.5095358992 8.10767213684 0.00340881224969 -296.401569491 17.2221906294 340.872716413 0.000704518903168 0.000704518903168 -0.000704518903168
1 13.5132768834 5.40400286977 2.70346703863 77.6968450575 -99.7215288715 96.6953558276 0.000704518903168 -0.000704518903168 -0.000704518903168
1 10.8104569945 5.40493877184 5.40261304954 45.7079575241 -6.13132186185 -238.703551325 0.000704518903168 -0.000704518903168 -0.000704518903168
1 10.8100546601 8.10837465145 8.1066003208 5.47451803601 87.4736511643 -89.9594129165 0.000704518903168 0.000704518903168 0.000704518903168
1 13.5126189197 8.10472305203 5.40523798191 11.9004720738 -277.686288466 23.7896841741 0.000704518903168 0.000704518903168 -0.000704518903168
1 13.5103786074 5.40488802918 8.10423420744 -212.130756157 -11.2055885499 -326.570747504 0.000704518903168 -0.000704518903168 0.000704518903168
1 10.8082063616 5.4025836873 10.8071513107 -179.355333142 -241.639774638 -284.860425962 0.000704518903168 -0.000704518903168 0.000704518903168
1 10.8110828712 8.10908632877 13.5119801784 108.295624459 158.641382646 -51.9736493518 0.000704518903168 0.000704518903168 0.000704518903168
1 13.5103330323 8.1070080326 10.8092809684 -216.688265369 -49.1882332882 -71.8946513529 0.000704518903168 0.000704518903168 0.000704518903168
1 13.5131137342 5.40352258802 13.5127895278 61.3819274625 -147.749703838 28.961283309 0.000704518903168 -0.000704518903168 0.000704518903168
1 10.8084365433 10.810068482 0.0021721322604 -156.337160774 6.85670910739 217.204718276 0.000704518903168 0.000704518903168 -0.000704518903168
1 10.8110590516 13.5106088854 2.70385668711 105.913661244 -189.102953586 135.660204244 0.000704518903168 0.000704518903168 -0.000704518903168
1 13.5128954209 13.5110432349 0.00242807418405 39.5505985834 -145.668005742 242.798910478 0.000704518903168 0.000704518903168 -0.000704518903168
1 13.5127101192 10.8119892237 2.70430818297 21.0204212739 198.930872432 180.809789292 0.000704518903168 0.000704518903168 -0.000704518903168
1 10.8087957128 10.8107293315 5.40358934702 -120.420208565 72.9416557378 -141.073803153 0.000704518903168 0.000704518903168 -0.000704518903168
1 10.8057483914 13.5136665114 8.10520934101 -425.152352514 116.659644181 -229.057390858 0.000704518903168 0.000704518903168 0.000704518903168
1 13.5140338079 13.5156449537 5.40391721445 153.389298435 314.503869417 -108.287060384 0.000704518903168 0.000704518903168 -0.000704518903168
1 13.5127993146 10.8121656593 8.10877773563 29.939964378 216.574432683 127.782068063 0.000704518903168 0.000704518903168 0.000704518903168
1 10.8089567492 10.807322669 10.8092938459 -104.31657692 -267.724592796 -70.6069040491 0.000704518903168 0.000704518903168 0.000704518903168
1 10.8093458957 13.5110676318 13.5111196829 -65.4019185936 -143.228309489 -138.023201081 0.000704518903168 0.000704518903168 0.000704518903168
1 13.5137802585 13.5113090327 10.8108517597 128.034354258 -119.088218532 85.184472431 0.000704518903168 0.000704518903168 0.000704518903168
1 13.51372927 10.8105607371 13.5135752319 122.935507036 56.0822159997 107.531698793 0.000704518903168 0.000704518903168 0.000704518903168
108
Atom. timestep:0.997765006386
1 0.108388147529 0.00914832108305 16.0847724263 72.691938522 -2.77633158813 -107.184780643 -0.0425241149274 -0.0148262782998 0.028144999169
1 0.0317429268733 2.64133724279 2.78523546842 39.4234435742 -43.9974868208 68.9408191245 0.00966097768034 0.0215561991138 -0.0181675700367
1 2.63014303805 2.51930520957 0.0992516235146 -50.0716961748 -143.94221413 94.2480778849 0.0259379641469 0.047679345732 -7.73976174147e-05
1 2.54981562279 16.0910110368 2.68992330136 -122.103494606 -115.041855592 -10.9654203619 0.0374249179712 0.0101015615723 0.000233581909951
1 16.1896627059 0.0439487956612 5.25987599549 -10.4562178697 59.271900721 -103.615892777 0.0204652313238 0.0207172037992 0.0505145436571
1 16.1927095545 2.66848497753 8.05033538916 -44.081550769 -33.7738184951 -45.2230644302 -0.0246482954003 -9.42101681505e-05 0.0131348054149
1 2.8509874914 2.66913098113 5.62713683874 106.964531224 -27.9781473113 153.857264818 -0.0543902325805 0.0045797759606 -0.0874868190092
1 2.60774372501 0.115307862969 8.12165179976 -85.3946240229 80.8876201163 3.76681682112 0.0114041288387 -0.0412996614889 -0.0118303390975
1 0.145274196023 15.9697162982 10.7245659532 116.528825998 -183.840395127 -63.4747384773 -0.0364487524121 0.0737558079267 0.0270749680751
1 15.9553837379 2.72031943316 13.6290504743 -184.494239615 7.90902331279 71.6419495376 0.0949622447932 -0.0145912978386 -0.0545545151124
1 2.66744120503 2.68234474621 10.6828916482 -64.9918124032 -9.21822056854 -107.75488242 -0.0350002142192 0.0113245160365 0.0202683572004
1 2.79791856647 0.175976109298 13.6350712157 91.7954413396 155.029297372 91.7880993184 -0.00198041115788 -0.0258960371605 -0.0377580906695
1 0.240089181431 5.37702991218 16.1948156509 188.379841993 -24.0947888832 17.1542030028 -0.0621716467392 0.00112445678775 0.048736586511
1 0.101583055258 8.12277274397 2.76007711756 81.7537288079 7.32519382534 48.9535750881 -0.0236344860605 -0.0103881015133 -0.0106912648117
1 2.71900123682 8.06850711686 16.0326983555 44.2139688157 -14.2358261355 -127.809373419 0.0333067373812 0.0324355883754 0.0676203804501
1 2.81576344854 5.28616360548 2.65204221312 94.4492173668 -112.448785458 -25.1163077193 -0.0223815601067 0.00769840309037 0.0285221516679
1 0.0549525987201 5.40302417526 5.64775038571 51.803818957 -1.23980417272 201.517817406 -0.00743922520847 0.00221038277804 -0.0478259196285
1 16.0831377981 8.2683692271 8.31091088255 -139.35007095 134.482472189 155.343078791 -0.0134153029545 -0.0282694244009 -0.0583685313112
1 2.7227216916 8.09356361138 5.30274107319 -2.2141448064 -21.7613084799 -73.8810296764 -0.0356157859899 -0.00816279026032 0.0385146774321
1 2.811253751 5.27640306409 7.84877755192 110.412080488 -82.4288315599 -194.921593644 0.00781215771201 0.0602128368621 0.0803962757543
1 16.0113482348 5.52791690711 10.6685546301 -184.584270444 100.660950617 -134.846813767 0.0189886708322 -0.0257995579246 0.00800854770069
1 0.0942238180457 8.09537860565 13.5511954137 42.304436914 0.316128285136 16.3117344691 -0.0634843942633 0.0193256516628 -0.028085546705
1 2.6163806506 8.31152054912 10.6094625472 -58.907111943 160.5780571 -159.496712128 0.0313098504926 -0.0518867179268 0.0540742324608
1 2.50808382666 5.5950129957 13.6005590478 -139.753131862 132.138770161 31.2036414596 0.0712792221253 -0.0743614093067 -0.0776994104094
1 16.0912882522 10.7577963557 16.0556542699 -95.047567729 -49.4367046494 -118.969251209 0.0396795015445 0.00189563849688 0.0512965233684
1 16.1657938198 13.6190291926 2.76668459056 -27.5265931817 72.316994842 36.779859554 0.0258476720494 -0.042083943242 -0.0323228518381
1 2.76897172177 13.4386937754 16.1347462097 50.2554862778 -62.8866085158 -66.7949473963 -0.0196890448943 0.0124289669394 0.0165265037281
1 2.6064008648 10.7784079247 2.53459881413 -82.6759245943 -25.1949311377 -155.933756919 0.0142281035826 0.007739880395 0.0123311079575
1 0.200027930889 10.882461704 5.64601465979 118.785341125 29.2018307196 198.829775504 -0.111025073014 -0.0629269306536 -0.0502119482712
1 16.0507114439 13.5600177378 8.1554061213 -127.575151677 45.1942147922 31.0324111546 0.0417342177245 -0.00285193923668 -0.0230993777472
1 2.48826166735 13.3358745668 5.41727575225 -163.317356914 -122.38796369 8.69000685084 0.0703126494547 0.0752245761584 -0.00598650702357
1 2.73965086462 10.57836342 7.97396522646 50.9088859926 -178.603618501 -104.917342713 0.0225406983456 0.0635814750901 0.0298315801802
1 16.1179857964 10.8012256739 10.8069243199 -73.9869048512 4.60330562265 19.1046930433 0.0263641433047 0.0159066088203 0.0283812026397
1 16.2045903814 13.6972334606 13.5055718539 3.3224563243 154.247185677 1.45331366241 0.0153722672009 -0.0366482580713 0.0105911783669
1 2.79733919223 13.6548553529 10.7375295651 103.646867291 108.149714123 -68.3118275811 0.0156294269959 -0.0396866104677 0.00447792574167
1 2.73701311173 10.7235022919 13.5685315214 35.529096083 -75.0893201075 35.6974773797 0.00136044428053 0.0122159130474 -0.0235051542218
1 5.5280997902 0.175484101451 0.0675295587253 107.318303407 147.082406835 62.229426132 -0.0207649648945 -0.0350794299948 -0.00639412923995
1 5.34613244884 2.63865265794 2.82047237249 -56.8020311959 -59.666411136 112.855268589 0.00271365521401 0.00458676037345 -0.00597789918713
1 8.00409121249 2.70743408514 0.146325035638 -93.9249468183 18.451351124 111.11463053 0.00909694207352 0.0190187379439 -0.0417453205503
1 8.37389714367 0.166455706534 2.84563562502 160.981667969 87.5463828916 92.625608767 -0.143025181734 -0.1003992018 -0.0771879777671
1 5.15824198994 0.0654607362947 5.43508037574 -211.397715876 23.0021762888 17.7089814232 0.0418891233175 -0.0531509929537 -0.0147024377836
1 5.41275819402 2.63089374569 8.07219797342 21.4189054128 -55.0172699237 -16.636781836 0.016955461805 0.0200661548904 0.0238218491457
1 7.98613436639 2.55287988611 5.37883955953 -98.6494924402 -125.923193441 3.49950091904 0.0239320597698 0.0277883160969 0.0371129997802
1 7.95169971808 0.0176206308047 8.26319219402 -140.274241303 11.5289545107 121.683756893 0.0164034172536 -0.0143708527921 -0.0438924816046
1 5.40431897874 0.249386727066 10.8246419204 -26.7115452813 192.539804134 5.99574306404 -0.0339337383739 -0.0689273867245 -0.0111749441655
1 5.41264992296 2.75970265491 13.2833745576 -4.86574077501 47.4454337136 -149.889351425 -0.0124878232033 -0.0217363456713 0.105097090764
1 8.11744201138 2.56834757275 10.6705166153 23.2751594537 -88.8258954175 -130.380308829 0.0158779098102 0.0570788677905 0.0119842090444
1 8.02419685609 0.213964780269 13.3991249287 -71.0131430557 176.110738001 -86.4076192758 0.0130615677793 -0.041989155855 0.0305729022549
1 5.47434906394 5.3963904927 0.174388227985 61.3691592272 -6.81540874938 152.914962282 -0.0068184185291 0.00357440612369 -0.0227517529694
1 5.36610563027 7.94552227236 3.12504596119 -7.57909051753 -134.297137703 363.079909184 0.0458431277923 0.0295692195816 -0.071054565476
1 8.09013525865 8.12341782131 0.0961535150796 -9.72807579614 -0.813684747552 97.404717646 0.00915389872904 -0.0190410822005 0.00160667514043
1 8.1780039171 5.37029177598 2.85120281619 59.342091435 -31.5513140922 117.765279081 -0.0177329371352 0.00296532020963 -0.0378577634003
1 5.7219032414 5.35532510202 5.59134927126 265.066842255 -55.9013862857 149.334818721 -0.0663226501684 -0.00909815490987 -0.0492729499595
1 5.40016398298 8.15948401252 7.93911932496 7.6885940357 36.93387869 -148.537256653 0.0166817703554 -0.0174165491549 0.0203039040626
1 8.31394167511 8.08484565562 5.38606479573 189.298956795 -6.96491964787 -20.6361172937 -0.0203005128202 0.0171250753251 -0.00321259361367
1 8.11065948803 5.46908932494 8.03124963546 20.1129779518 52.3584512509 -53.1211505062 0.0283614551785 -0.0113633939687 0.033885465479
1 5.23874476869 5.19004834726 10.9590675799 -153.28367606 -150.719812397 91.173702059 0.0130661520839 0.0863767635907 -0.0768179831452
1 5.64572336417 8.11359161342 13.3871389874 203.645745553 3.30263292124 -108.592622235 -0.0415708154772 -0.00288891147576 0.01947397439
1 8.0467267058 8.22581466509 10.6592177263 -53.6653220767 67.334002733 -141.564182489 0.00724549699257 -0.0620950695671 0.00892155068299
1 8.02124815656 5.34163006883 13.5069136982 -56.1540361126 -63.2693591466 -6.7781286482 0.0329744860066 -0.00145696387033 -0.000601153848884
1 5.57700224835 10.8299687065 0.135556814247 152.389713263 3.02433113039 124.417031581 -0.0221269154669 -0.0172329828229 -0.0127597724365
1 5.40384950372 13.5724348441 2.63967627184 1.77658839436 63.7511428791 -38.2982711229 0.00147375642615 0.00430572131106 0.0257861209772
1 8.06093053633 13.5565405491 0.0248172947132 -31.9175311771 60.0827842506 16.8395232606 0.0165824816317 0.017499698929 -0.0091305825672
1 8.25584647837 10.8802404974 2.71514935275 96.8675464688 57.8705039725 33.4890195097 -0.0664377138718 -0.0138186665528 0.0262216967852
1 5.50587797911 10.9434760965 5.54754966079 101.06354918 114.917186582 100.257443168 0.00117441042083 -0.0241232679113 -0.0506700148969
1 5.27678457042 13.5478365547 7.91293694051 -126.34558929 45.976846557 -159.464834055 0.00106767437252 0.0158262861186 0.0418612049442
1 8.28046161916 13.4412868534 5.69621952342 9.59492953274 -50.8239280274 120.521596581 -0.243335425742 0.0173295268958 -0.253648985328
1 8.19072352901 10.820381199 8.16782561153 61.1742872349 -0.967068687853 44.0006377701 -0.0253443029636 -0.0118592350794 -0.0208118438563
1 5.56472379925 10.8173619921 10.7914285796 115.154809803 6.39212711474 -25.5352340485 -0.0550147138741 -0.00430000447643 -0.00709189802849
1 5.25488614769 13.427197459 13.5334534831 -122.766595928 -68.3298417687 17.2573206157 0.0320377604178 0.0176380968214 -0.00568758463207
1 7.86715259117 13.4885938544 10.7886903751 -213.712651136 -3.04242876861 -14.5536176989 0.0305979081233 0.0277626533872 0.00748619384171
1 8.18789250961 10.7594754017 13.5281921419 69.6510782554 -40.1201594774 20.3854269428 -0.01244318053 0.0111316621174 0.00547775927117
1 10.9475660048 16.1577464003 0.282135131057 124.109568439 -82.1866646566 214.622010761 -0.0175622056921 -0.0345381169969 -0.0814165750562
1 10.6497678707 2.63512105055 2.45952698533 -90.1519040232 -2.65164553621 -202.187338459 0.0919903810797 0.090428110616 0.0487232252869
1 13.612103177 2.88557233022 16.1577999783 85.1120930503 143.354548013 -7.35573866457 -0.021033287592 -0.0461157287017 0.0671823017356
1 13.5916644622 16.1501956428 2.58603265129 76.4180140746 -31.4205490084 -108.373330561 0.00250779220894 0.0412873280756 0.0109871801763
1 10.6414452084 0.0293225510087 5.29001080469 -99.401393278 37.2262073073 -63.8340639613 0.0942569428701 0.00569907827542 0.0748293378823
1 11.0086141859 2.82704021675 8.06483821986 156.772003365 63.8842875712 -76.9468704849 -0.0495968366278 -0.0820262230794 -0.0452626811712
1 13.4315536931 2.74812193678 5.13446875635 -80.549064143 8.76684961749 -237.121109697 -0.00114750396321 -0.0478715357321 0.0417558582579
1 13.4945443799 0.0192672174187 8.178052075 -25.4348949635 22.0966290712 63.7000930732 -0.00774906367964 0.00327909113407 -0.0053969007084
1 10.8890232456 0.0981623735594 10.9190784448 51.4960055002 64.3166909232 71.2960725718 -0.0349645969306 -0.0388878783464 -0.0453265730992
1 10.9282469383 2.48956493318 13.6184285574 81.8636127722 -175.838954304 119.197196377 -0.0420768175945 0.0425940661393 0.0204641679531
1 13.3795274436 2.7255744397 10.9492197368 -99.9783897994 37.3231803849 95.043279284 0.035521358892 0.0209289012509 -0.0530504743857
1 13.5175434735 0.082912136561 13.3051934769 20.7764587965 37.4294072127 -160.384691373 0.0246435005013 -0.0571971380438 0.0531671265949
1 10.9635248244 5.36427935753 16.0516880429 113.527441915 -36.858687669 -145.951222217 -0.0467881210105 0.00499495584899 0.0189158437304
1 10.963962034 8.07757409305 2.66025316304 87.6951647118 -30.1670926641 18.4823689896 -0.101322299187 -0.000414315859808 0.0962293233006
1 13.2503513327 8.12705923414 0.31477315299 -170.489445905 27.2534809995 237.508894355 0.127886450046 0.0126918845697 -0.111105092515
1 13.5961881524 5.30990640234 2.78507142061 93.5292622452 -77.7718103679 47.3461430387 0.0134521916233 0.0265567190756 -0.0463324559546
1 10.8454205572 5.39051130211 5.17369266691 15.5696011788 -30.8057982953 -207.668597397 -0.0202981358713 -0.0198513087817 0.0281436789465
1 10.8173580505 8.18958277603 8.01261122068 11.9888759791 68.1057771853 -101.331032154 0.00703180043249 -0.0164943543988 -0.00817969716903
1 13.5292485125 7.85934755947 5.42159469767 26.3127592638 -179.096263113 -4.14593363083 0.0123571811175 0.0841699217637 -0.0320436181237
1 13.3136846009 5.39164333764 7.80306140562 -162.703716064 -17.1195306512 -245.90741775 0.0448909258809 -0.00509696628458 0.0726017753886
1 10.6351581053 5.18308197273 10.5486178802 -159.341063274 -171.027603116 -203.183263619 0.01830685362 0.0636481273315 0.0714573586276
1 10.9125374798 8.25194464852 13.4684553798 88.8340009535 113.687536078 -22.2131883626 -0.0141359827931 -0.0333660937508 0.0302694761335
1 13.3019749208 8.05386605875 10.7412047707 -190.425658157 -61.1519294458 -62.2130099133 0.0230347418068 -0.0103578068424 0.00504462314853
1 13.5670909024 5.28226353538 13.5350920042 38.8957440438 -64.9382925104 6.45869352092 -0.0189557687784 0.0719118642426 -0.0218365266781
1 10.6655711953 10.8203925396 0.201278327107 -113.093334389 16.2588010084 159.054854337 0.0397124755777 0.00608171569135 -0.0529761397731
1 10.9075994383 13.3461063675 2.8342018339 77.2446130401 -108.160462742 116.667701663 -0.0236047688758 0.0760449782995 -0.0199946263979
1 13.5482403724 13.3753548159 0.223696747167 26.8881772508 -117.501208151 178.945682146 -0.0105110494962 0.020466898376 -0.0511109572361
1 13.5454013323 10.9895833448 2.88966684103 56.7202049491 132.057788529 193.95925645 0.0301795467589 -0.0583110164223 0.01072629013
1 10.7103655561 10.869522198 5.28097362024 -55.7327266327 25.9801099225 -80.5864933694 0.0502814338651 -0.0433304097016 0.0574641361046
1 10.4474701561 13.6313292622 7.93096904122 -181.877451399 124.343235934 -20.0200058 0.261750609675 0.0150591808196 0.238011892961
1 13.65089221 13.8132297292 5.31235565555 101.297273352 262.923024798 -57.5313292419 -0.0464068595169 -0.0435745833901 0.0422305996566
1 13.5267243513 11.0198723196 8.21789381679 -17.7808093176 186.585901289 74.316370577 -0.0385265836627 -0.0292919593807 -0.0404746366553