108
Atom. timestep:0
1 0.000946182628817 1.05442064561e-05 16.214915795 94.6097559026 1.04591426532 -8.42901125316 -0.000704518903168 -0.000704518903168 -0.000704518903168
1 0.000581656752599 2.70212308295 2.70222989246 58.1571685141 -37.7002109769 -27.0192605703 -0.000704518903168 -0.000704518903168 -0.000704518903168
1 2.70175144268 2.70320138118 0.00182974781034 -74.8642381191 70.1296115027 182.96627349 -0.000704518903168 -0.000704518903168 -0.000704518903168
1 2.70211206891 0.000290997310662 2.70211828077 -38.8016150819 29.0912245064 -38.1804293475 -0.000704518903168 -0.000704518903168 -0.000704518903168
1 16.2145114111 0.000204344117592 5.40430888232 -48.8673932104 20.4259052549 -69.120273949 -0.000704518903168 -0.000704518903168 -0.000704518903168
1 0.00032185265573 2.70263012893 8.10748962146 32.1767589935 13.004387042 -1.02934730032 -0.000704518903168 -0.000704518903168 0.000704518903168
1 2.70275062279 2.70185162809 5.40634299716 25.0537724606 -64.8456966482 134.291208887 -0.000704518903168 -0.000704518903168 -0.000704518903168
1 2.70281632767 0.000675549270674 8.10565989794 31.6242606092 67.5464202616 -184.001698887 -0.000704518903168 -0.000704518903168 0.000704518903168
1 0.00102422759917 0.00135653326418 10.8089120239 102.414252888 135.644819176 -108.789104735 -0.000704518903168 -0.000704518903168 0.000704518903168
1 16.2148165989 2.70317293659 13.5122847019 -18.3486190224 67.2851524697 -21.5213056373 -0.000704518903168 -0.000704518903168 0.000704518903168
1 2.70265443582 2.70096197144 10.810930071 15.4350758227 -153.811361343 93.0156094585 -0.000704518903168 -0.000704518903168 0.000704518903168
1 2.70172380364 16.2135276865 13.5145609658 -77.628142282 -147.239852186 206.105081719 -0.000704518903168 -0.000704518903168 0.000704518903168
1 16.2142356959 5.40451440168 16.2145484934 -76.4389146435 -48.5683383282 -45.1591676359 -0.000704518903168 -0.000704518903168 -0.000704518903168
1 16.2140769122 8.10583047623 2.70116967298 -92.3172836273 -166.943869381 -133.041207435 -0.000704518903168 0.000704518903168 -0.000704518903168
1 2.70207701799 8.10716908835 16.2144941543 -42.3067069537 -33.0826582443 -50.5930747423 -0.000704518903168 0.000704518903168 -0.000704518903168
1 2.70538860994 5.40590664823 2.70239407542 288.852485878 90.6563155706 -10.6009642361 -0.000704518903168 -0.000704518903168 -0.000704518903168
1 0.00155483696777 5.40526264941 5.40437280029 155.475189408 26.2564349332 -62.7284773733 -0.000704518903168 -0.000704518903168 -0.000704518903168
1 16.2139232623 8.10693675219 8.10776026257 -107.682279968 -56.3162744531 26.0347631087 -0.000704518903168 0.000704518903168 0.000704518903168
1 2.70346852847 8.10672963459 5.40633982434 96.8443403777 -77.0280340275 133.97392679 -0.000704518903168 0.000704518903168 -0.000704518903168
1 2.70277034006 5.40566844604 8.10789214009 27.0254997901 66.8360972881 39.2225153723 -0.000704518903168 -0.000704518903168 0.000704518903168
1 0.00186401884914 5.40388779014 10.8103477279 186.393377347 -111.229491393 34.7812965519 -0.000704518903168 -0.000704518903168 0.000704518903168
1 16.2133434361 8.10799762254 13.5139200132 -165.664891763 49.7707600869 142.009828341 -0.000704518903168 0.000704518903168 0.000704518903168
1 2.70399672208 8.10717276968 10.8101399733 149.663700589 -32.7145249742 14.0058373263 -0.000704518903168 0.000704518903168 0.000704518903168
1 2.70224574852 5.40448242639 13.5108559384 -25.4336543352 -51.7658665562 -164.397654874 -0.000704518903168 -0.000704518903168 0.000704518903168
1 0.000135079026187 10.8090716511 0.00186244340039 13.4993961587 -92.8263840543 186.235832474 -0.000704518903168 0.000704518903168 -0.000704518903168
1 0.000933462082391 13.5120368293 2.70444889398 93.3377012682 -46.3085678589 194.880890062 -0.000704518903168 0.000704518903168 -0.000704518903168
1 2.70290732201 13.5119766883 0.00261498926295 40.723694208 -52.3226588294 261.490418247 -0.000704518903168 0.000704518903168 -0.000704518903168
1 2.70161671765 10.8105337283 2.70057757781 -88.3367409539 53.3813372862 -192.250723962 -0.000704518903168 0.000704518903168 -0.000704518903168
1 16.2138033912 10.8096708555 5.40553500108 -119.66938144 -32.9059421463 53.4916011799 -0.000704518903168 0.000704518903168 -0.000704518903168
1 16.2143494646 13.5110610664 8.10744213025 -65.0620455336 -143.884852421 -5.77846809701 -0.000704518903168 0.000704518903168 0.000704518903168
1 2.70249326633 13.5132049478 5.40281288152 -0.681873333772 70.5032889286 -218.720353057 -0.000704518903168 0.000704518903168 -0.000704518903168
1 2.70269602625 10.8084792692 8.10702250109 19.5941186185 -152.064574251 -47.7413848182 -0.000704518903168 0.000704518903168 0.000704518903168
1 0.00214479835626 10.8103168282 10.8107431866 214.47132788 31.6913219971 74.3271676641 -0.000704518903168 0.000704518903168 0.000704518903168
1 16.2142125085 13.5126624267 13.5132909997 -78.7576537603 16.2511736082 79.1084790415 -0.000704518903168 0.000704518903168 0.000704518903168
1 2.70413426595 13.513093108 10.8097908937 163.41808786 59.3193048219 -20.9021279779 -0.000704518903168 0.000704518903168 0.000704518903168
1 2.70268320917 10.8098170843 13.5115224488 18.3124109978 -18.2830665215 -97.7466083979 -0.000704518903168 0.000704518903168 0.000704518903168
1 5.40482319639 0.000518088858713 16.2136102704 -17.6888671324 51.8003791662 -138.981463831 -0.000704518903168 -0.000704518903168 -0.000704518903168
1 5.40340478074 2.703564144 2.70484681513 -159.530431845 106.405892868 234.673004835 -0.000704518903168 -0.000704518903168 -0.000704518903168
1 8.10681589345 2.70232537623 0.00100340047332 -68.4021478215 -17.4708832733 100.331540317 0.000704518903168 -0.000704518903168 -0.000704518903168
1 8.10623814383 16.2135346512 2.70334100375 -126.177109561 -146.543386677 84.0918685651 0.000704518903168 -0.000704518903168 -0.000704518903168
1 5.40584250742 16.2144389241 5.40521332076 84.2422347766 -56.1160993265 21.3235699411 -0.000704518903168 -0.000704518903168 -0.000704518903168
1 5.40577756266 2.70110096651 8.1072196049 77.7477586397 -139.91185482 -28.0310035208 -0.000704518903168 -0.000704518903168 0.000704518903168
1 8.10827518247 2.7031380827 5.40564931672 77.5267529242 63.7997628115 64.9231647629 0.000704518903168 -0.000704518903168 -0.000704518903168
1 8.10564056419 0.000179357285203 8.10536649158 -185.935073224 17.927222032 -213.342334695 0.000704518903168 -0.000704518903168 0.000704518903168
1 5.40708111043 0.000458605283451 10.8124203313 208.102534868 45.852021678 242.041637539 -0.000704518903168 -0.000704518903168 0.000704518903168
1 5.40591346331 2.70300980589 13.5144218988 91.3378235458 50.9720821788 192.19838529 -0.000704518903168 -0.000704518903168 0.000704518903168
1 8.10871383276 2.70259603063 10.8106367541 121.391781211 9.59455649412 63.6839127779 0.000704518903168 -0.000704518903168 0.000704518903168
1 8.10687126766 0.000996147712039 13.5121211697 -62.8647275738 99.6062641928 -37.8745222151 0.000704518903168 -0.000704518903168 0.000704518903168
1 5.40475305651 5.40424974839 16.2146593334 -24.7028551239 -75.0336665255 -34.0751646159 -0.000704518903168 -0.000704518903168 -0.000704518903168
1 5.40744821039 8.1064479468 2.70378030912 244.812530813 -105.196812573 128.02240446 -0.000704518903168 0.000704518903168 -0.000704518903168
1 8.10760291711 8.1084960274 0.000142190337568 10.3002173607 99.6112455698 14.2105272923 0.000704518903168 0.000704518903168 -0.000704518903168
1 8.10869738552 5.40377777209 2.70145538964 119.74705792 -122.231296769 -104.469541494 0.000704518903168 -0.000704518903168 -0.000704518903168
1 5.40624322997 5.40607094636 5.40387532782 124.314489494 107.086129068 -112.475723764 -0.000704518903168 -0.000704518903168 -0.000704518903168
1 5.40616004425 8.10611055024 8.10714449773 115.995917926 -138.936468468 -35.5417207843 -0.000704518903168 0.000704518903168 0.000704518903168
1 8.10813339396 8.10467780767 5.40515929072 63.3479018722 -282.210724559 15.9205650942 0.000704518903168 0.000704518903168 -0.000704518903168
1 8.10525883719 5.40441018908 8.10770567916 -224.10777318 -58.9895981907 20.576421949 0.000704518903168 -0.000704518903168 0.000704518903168
1 5.40620855 5.40548310885 10.8081042533 120.846492833 48.3023781588 -189.566166563 -0.000704518903168 -0.000704518903168 0.000704518903168
1 5.40629195991 8.10595393051 13.5126546857 129.187483639 -154.598441711 15.477081098 -0.000704518903168 0.000704518903168 0.000704518903168
1 8.10754215564 8.10864054243 10.8087878931 4.22407007942 114.062749085 -121.202182644 0.000704518903168 0.000704518903168 0.000704518903168
1 8.10731797826 5.40489578437 13.514168471 -18.193667191 -10.4300688789 166.855609246 0.000704518903168 -0.000704518903168 0.000704518903168
1 5.40387429179 10.8083160537 16.2142998464 -112.579326395 -168.386119168 -70.0238707079 -0.000704518903168 0.000704518903168 -0.000704518903168
1 5.40580045465 13.5119633589 2.70368854366 80.0369579873 -53.6556012017 118.845859161 -0.000704518903168 0.000704518903168 -0.000704518903168
1 8.10702053267 13.512779928 16.214211354 -47.9382258557 28.0013087534 -78.8731085632 0.000704518903168 0.000704518903168 -0.000704518903168
1 8.10889920736 10.810304897 2.70170378983 139.929241348 30.4982107796 -79.6295228847 0.000704518903168 0.000704518903168 -0.000704518903168
1 5.40373611116 10.8120409968 5.40332749737 -126.397389903 204.108187546 -167.258768118 -0.000704518903168 0.000704518903168 -0.000704518903168
1 5.40512688688 13.5127823747 8.10667826893 12.6801815995 28.2459791758 -82.1645998337 -0.000704518903168 0.000704518903168 0.000704518903168
1 8.10754588327 13.5117173387 5.40430276182 4.59683359983 -78.2576208954 -69.7323235273 0.000704518903168 0.000704518903168 -0.000704518903168
1 8.10987645869 10.8095334518 8.10946275201 237.654373614 -46.6463175823 196.283705857 0.000704518903168 0.000704518903168 0.000704518903168
1 5.40653113747 10.8101768623 10.8117784228 153.105239188 17.6947394506 177.850784092 -0.000704518903168 0.000704518903168 0.000704518903168
1 5.40521146084 13.5126547325 13.5127049677 21.1375777989 15.4817611732 20.5052785273 -0.000704518903168 0.000704518903168 0.000704518903168
1 8.1065735683 13.5129837285 10.8082881184 -92.6346632641 48.3813548851 -171.179655226 0.000704518903168 0.000704518903168 0.000704518903168
1 8.10658762532 10.8088679571 13.5131903011 -91.2289605971 -113.195784624 69.0386194551 0.000704518903168 0.000704518903168 0.000704518903168
1 10.8102645287 16.2135406438 16.2148842627 26.4613740155 -145.944127051 -11.5822385328 0.000704518903168 -0.000704518903168 -0.000704518903168
1 10.809017627 2.70154076332 2.70261631688 -98.2287924041 -95.9321737342 11.6231812849 0.000704518903168 -0.000704518903168 -0.000704518903168
1 13.5123560234 2.70304016192 0.000249634130683 -14.3891558133 54.0076857306 24.954906535 0.000704518903168 -0.000704518903168 -0.000704518903168
1 13.5124537262 16.2140573173 2.70261626971 -4.61887361775 -94.2767772552 11.6184644889 0.000704518903168 -0.000704518903168 -0.000704518903168
1 10.8109731651 0.0023040780622 5.40596177633 97.3250154551 230.399298372 96.1691261128 0.000704518903168 -0.000704518903168 -0.000704518903168
1 10.8084282356 2.70343614962 8.10620668161 -157.167937264 93.6064547308 -129.323331829 0.000704518903168 -0.000704518903168 0.000704518903168
1 13.5119378226 2.70423045554 5.40626353075 -56.2092315943 173.037046067 126.344567338 0.000704518903168 -0.000704518903168 -0.000704518903168
1 13.5122794119 0.000569530072942 8.10757218386 -22.0503045756 56.9445005562 7.2268920017 0.000704518903168 -0.000704518903168 0.000704518903168
1 10.8088696739 0.00103037475064 10.8118847685 -113.024102532 103.028968031 188.485353103 0.000704518903168 -0.000704518903168 0.000704518903168
1 10.8106607368 2.70186735284 13.5117306065 66.0821813171 -63.2732220479 -76.9308422847 0.000704518903168 -0.000704518903168 0.000704518903168
1 13.5142373667 2.70444471264 10.8099364677 173.74517971 194.462755955 -6.3447281427 0.000704518903168 -0.000704518903168 0.000704518903168
1 13.5108477763 0.00128120525699 13.5115946454 -165.213866251 128.112018505 -90.5269490429 0.000704518903168 -0.000704518903168 0.000704518903168
1 10.8105260421 5.4049486156 16.2139617063 52.6127203206 -5.14694599507 -103.837880178 0.000704518903168 -0.000704518903168 -0.000704518903168
1 10.8109591525 8.10562546679 2.7025610662 95.9237555408 -187.444813092 6.09811362095 0.000704518903168 0.000704518903168 -0.000704518903168
1 13.5121919598 8.10475234427 16.2127035497 -30.7955110952 -274.757065218 -229.653533831 0.000704518903168 0.000704518903168 -0.000704518903168
1 13.5135510329 5.40427684939 2.7026170812 105.111795948 -72.3235669477 11.6996137154 0.000704518903168 -0.000704518903168 -0.000704518903168
1 10.8115855624 5.4055905494 5.4048496212 158.56474088 59.0464332681 -15.046386387 0.000704518903168 -0.000704518903168 -0.000704518903168
1 10.8091472456 8.10670570921 8.10910259832 -85.2669353679 -79.4205722913 160.268337385 0.000704518903168 0.000704518903168 0.000704518903168
1 13.5125347531 8.10939266791 5.40423409489 3.48381320115 189.27529625 -76.5990169769 0.000704518903168 0.000704518903168 -0.000704518903168
1 13.5124655096 5.40712905463 8.10590215297 -3.44053457859 212.896955538 -159.776195177 0.000704518903168 -0.000704518903168 0.000704518903168
1 10.8103755329 5.40360651804 10.8094527066 37.5617962377 -139.356701034 -54.7208309945 0.000704518903168 -0.000704518903168 0.000704518903168
1 10.8087660464 8.10630693041 13.511892148 -123.386850867 -119.298452067 -60.7766970983 0.000704518903168 0.000704518903168 0.000704518903168
1 13.5095087565 8.10826550988 10.8098868353 -299.115845699 76.5594942989 -11.3079654455 0.000704518903168 0.000704518903168 0.000704518903168
1 13.5119796209 5.40719098559 13.5106573573 -52.0294061293 219.090051574 -184.255766978 0.000704518903168 -0.000704518903168 0.000704518903168
1 10.8099181248 10.8104027001 0.000314940584447 -8.17901681188 40.2785140296 31.4855518696 0.000704518903168 0.000704518903168 -0.000704518903168
1 10.8095867326 13.5109682404 2.70361880167 -41.3182374985 -153.16745275 111.871660029 0.000704518903168 0.000704518903168 -0.000704518903168
1 13.5124878769 13.5133557407 16.2135171606 -1.20380616186 85.5825791192 -148.292450289 0.000704518903168 0.000704518903168 -0.000704518903168
1 13.511881496 10.8097727019 2.7037490451 -61.8418896756 -22.7213051324 124.896002506 0.000704518903168 0.000704518903168 -0.000704518903168
1 10.8081740104 10.8110442428 5.40512157295 -182.590453618 104.432789705 12.1487883113 0.000704518903168 0.000704518903168 -0.000704518903168
1 10.8106761866 13.5122055904 8.10737380778 67.6271618207 -29.4324541084 -12.6107157645 0.000704518903168 0.000704518903168 0.000704518903168
1 13.5134695623 13.5138322119 5.40521073941 96.9647370216 133.229695139 21.0654349728 0.000704518903168 0.000704518903168 -0.000704518903168
1 13.512656223 10.8084471498 8.10788297258 15.6308052905 -155.276512459 38.3057637896 0.000704518903168 0.000704518903168 0.000704518903168
1 10.8083799 10.8108113273 10.8091418234 -162.001495859 81.1412380253 -85.8091557489 0.000704518903168 0.000704518903168 0.000704518903168
1 10.8087173973 13.5116647761 13.5109788308 -128.251766068 -83.5138844859 -152.108417432 0.000704518903168 0.000704518903168 0.000704518903168
1 13.5128362441 13.5115389586 10.8092088854 33.6329188957 -96.0956306966 -79.1029579578 0.000704518903168 0.000704518903168 0.000704518903168
1 13.5126548617 10.8099966723 13.5138166504 15.4946730865 -0.324265843396 131.673542242 0.000704518903168 0.000704518903168 0.000704518903168
108
Atom. timestep:0.997765006386
1 0.082891934185 0.00120415514755 16.2106538269 55.8076806557 1.49754238671 6.02956399972 -0.0327538644493 0.000736892452149 0.0150629052066
1 0.0539056808674 2.66874033405 2.68246414974 41.8614246226 -25.0775247156 -4.80244894858 -0.0158950904397 0.00969264742416 0.018665124938
1 2.63310367726 2.77294082955 0.170831255964 -54.8058254973 68.2912635268 140.594262987 0.0184333309712 -0.00199303882473 -0.034837445813
1 2.67179046008 0.030383954383 2.66820985413 -14.3938845571 31.9888150758 -25.2493554443 0.0182418673044 0.00258305206789 0.0104495183622
1 16.1675429493 0.0258207325271 5.3422639357 -42.1120145363 36.1338758786 -48.1739204065 0.00702823608343 0.0131638786495 0.0165116232049
1 0.031655766908 2.72095235656 8.10256612294 29.9121144856 28.2842680259 -12.9992074743 -0.00131962948116 0.0115545948175 -0.0101222639808
1 2.72666388921 2.64692175778 5.53101526368 20.615017073 -33.5248349042 104.500563889 -0.00523455605253 0.02813912762 -0.0258790858559
1 2.73347090109 0.0559223721642 7.93448047505 27.1777270519 28.7379029969 -144.400642293 -0.00556044631578 -0.0345113350426 0.0341734408807
1 0.0965745150253 0.122779194796 10.7063673153 80.7354677768 92.7375885725 -90.3357013112 -0.0192530757634 -0.0350181008543 0.0142116659549
1 16.1962378367 2.7639695708 13.4976120434 -18.8114484409 46.7617186463 -1.40290837498 9.66942131805e-05 -0.0178038885748 0.0154068806465
1 2.73017459045 2.5511919659 10.899351024 51.2173730592 -140.745160193 79.7856465476 0.0283990857369 0.0120472259566 -0.00966918967785
1 2.6294407722 16.0747462544 13.7096338852 -61.1656144883 -123.343294908 170.435407033 0.0144722726689 0.0171985348123 -0.0326857817277
1 16.1461331085 5.35410453719 16.1678236112 -51.6568061379 -53.9074958632 -50.3159522163 0.0193839064796 -0.00404705767727 -0.00491948225205
1 16.1287806908 7.94639777425 2.57611910503 -71.7642861178 -144.018913274 -109.789742955 0.0158173085847 0.0190497366307 0.0177029124014
1 2.66334232782 8.06839927018 16.1623078474 -33.3745325382 -49.5946946196 -55.4367055263 0.00453559434178 -0.0127703915864 -0.00427281533784
1 2.97140145814 5.4990086331 2.69414138607 218.855500172 100.624633535 -3.54948493669 -0.058870109441 0.0123038294054 0.005346530778
1 0.152760312512 5.42982207092 5.34301192406 142.37093814 20.6292687096 -58.3150954576 -0.0108256309879 -0.00520526233211 0.00408547980624
1 16.115651539 8.05293754417 8.13865473719 -76.9927159931 -47.6065928106 39.2236486415 0.0288574700428 0.00966071255234 0.00901302717679
1 2.79525851918 8.03780271129 5.52673523792 82.781464479 -54.2378032294 94.5743530796 -0.00965872105553 0.016042207241 -0.0304078683144
1 2.73291070816 5.46279897522 8.14594041242 35.2312301637 38.3802133401 35.378234052 0.00548662518669 -0.0219049807394 -0.00336756225421
1 0.177198195497 5.30749140289 10.8387080609 154.275488802 -68.5461349268 13.4808880731 -0.0248125382203 0.0320836533648 -0.0202502839948
1 16.064397867 8.15616278847 13.6390828605 -112.335163694 46.4205757109 91.2852268165 0.0477462283736 -0.000725106806877 -0.0412494189136
1 2.84909104468 8.07688107437 10.8243283822 136.888096328 -24.8134508425 13.5579223234 -0.0087912196318 0.00706012735483 -0.00150989051245
1 2.68408421856 5.3554390519 13.3593862578 -1.33188832611 -43.6678029737 -123.597369174 0.023114212545 0.00616071615966 0.0361372865232
1 0.00379588873726 10.7232477239 0.175997783742 -18.9423956186 -71.5905211059 147.357442057 -0.0305765682074 0.0171595011795 -0.0352589324086
1 0.0788407177632 13.4686034768 2.88255051634 44.8488426729 -37.9965037292 142.818765928 -0.0430016500779 0.00605388999255 -0.0451374554888
1 2.74399460627 13.4640225664 0.245440759439 41.7636937209 -33.7291096468 202.897158319 0.00103358465634 0.0234810701547 -0.0515019958158
1 2.62196822276 10.8438884573 2.53106920249 -59.4582730522 -7.66453861672 -119.464799304 0.0275324565412 -0.0520095905907 0.0661615159985
1 16.1083828249 10.7746729507 5.45400407074 -77.0014893107 -37.1277995406 39.8264106324 0.0344778496937 -0.000521164460087 -0.00925016934578
1 16.1595540837 13.3760700194 8.10161295512 -35.6443186968 -117.947867289 -5.58513761915 0.0219839339314 0.0195970801649 0.000662824922849
1 2.70084229419 13.5806034012 5.20272317231 -0.0148257681386 62.6324423291 -160.844562352 0.00650649918579 -0.00432643470098 0.0500494594693
1 2.7261638422 10.6652785063 8.06284803377 29.5816262566 -125.962093265 -36.7627265635 0.00598681742838 0.0205793652469 0.00951477466743
1 0.203489102264 10.8363992683 10.8807959268 175.31399245 16.8740879657 59.8129137483 -0.0317653109594 -0.00928239385591 -0.014637940987
1 16.1422791057 13.5279360601 13.5866124179 -58.6543068932 12.2348744479 60.6389375055 0.0160156030824 -0.00471918147429 -0.0165298795639
1 2.86221095687 13.5743649272 10.786307735 147.728418018 64.5345171457 -27.7906506515 -0.0119848226238 0.00343898936518 -0.00430482709534
1 2.72207374988 10.7926874299 13.4257748148 22.9723905983 -14.7181718055 -61.593483271 0.00644846426345 0.00287895628578 0.0298863319807
1 5.38585656508 0.0493228447812 16.0923384222 -20.6662273898 41.1211063181 -86.9306457237 -0.00131266197241 -0.0108254453034 0.0409173073761
1 5.2590603463 2.79610862469 2.92746726363 -112.514145961 62.8050138874 198.10028415 0.0400014599521 -0.0384995064222 -0.0306382771969
1 8.04547843308 2.67815037463 0.100728822816 -47.8689154413 -37.865187657 97.1094916546 0.0154280965927 -0.0172590280691 -0.00455401689158
1 7.98868604955 16.078382462 2.7814190729 -98.1972185909 -112.075133281 64.7531878918 0.0257807560494 0.0287293395259 -0.0177632384798
1 5.47944517312 16.162322821 5.4162027171 48.3937179394 -44.8479272511 -11.9119584306 -0.0352764201003 0.00845694672106 -0.0304184905456
1 5.47531937989 2.57146582927 8.08401161835 51.7621339657 -108.219470812 -13.0974300505 -0.0231316423397 0.0270402949058 0.0127543967083
1 8.17691293908 2.76837828828 5.45804918166 48.8857939861 68.0776670285 25.6257636881 -0.0261809644395 0.00314525063746 -0.0345837883326
1 7.94079455692 0.013369632163 7.90827997752 -118.884000896 1.75864920714 -162.710368449 0.060636796099 -0.0157978661943 0.0439465282711
1 5.59702323685 0.0489551458377 11.0380823006 150.611286257 54.3471800535 189.921126636 -0.0518970157933 0.00772160661224 -0.0474320698803
1 5.48622747006 2.75558293881 13.6914080502 58.6974605738 54.4041910097 144.742149063 -0.0256114932273 0.000836448634677 -0.0411548201794
1 8.21849353077 2.71635527458 10.8695389104 85.0261112632 23.0998402599 49.2491248094 -0.0318716578021 0.0122860130793 -0.0116838489018
1 8.05538676623 0.0939400288977 13.487516951 -24.9171991984 79.5344820314 6.96923183222 0.0370236035531 -0.0159538829842 0.0444266855347
1 5.38183238437 5.33669799546 16.1869435588 -19.2478893894 -51.5966379308 -14.1228135441 0.00474868981167 0.0203598641757 0.017563805103
1 5.64317837798 8.01558273471 2.81920085184 219.387689567 -60.6022974372 88.4979190648 -0.0180056460614 0.0386642941073 -0.0346072505612
1 8.12127028506 8.19743441739 0.0185519325132 20.3603845406 67.2947359273 26.6548503032 0.00813958669044 -0.0267732052647 0.00977284595916
1 8.22512273735 5.28624660845 2.59996465882 108.440568337 -105.80101213 -94.0077498589 -0.0109787572153 0.01695798652 0.0109063431651
1 5.52299137116 5.49697761755 5.30554439953 100.264664953 56.6133067848 -68.0672032076 -0.0214744209883 -0.043469840036 0.0390838852159
1 5.51780271745 7.98860104793 8.06890968004 100.209970536 -74.4637151783 -43.9317063761 -0.016237641325 0.052581870512 -0.00727950861162
1 8.17899603263 7.84416064242 5.42167318705 89.7045825821 -218.892264125 18.1584838494 0.0267087487589 0.0493635329271 0.00254683844292
1 7.90483898072 5.34290255662 8.12484568209 -148.305946348 -68.1925328779 6.771133138 0.0690425512114 -0.0101148034828 -0.0173341377764
1 5.51888609758 5.44224157405 10.6394005705 92.0323168538 14.8541681664 -122.337748911 -0.0303739879652 -0.0253203514766 0.0620562496712
1 5.52682273156 7.95370150922 13.524945221 102.512721111 -146.147436918 5.55332072147 -0.0223616116384 0.00883278876993 -0.00843815911067
1 8.11112531832 8.20566006365 10.7029095363 -0.153126468883 61.6005919769 -72.3118829972 -0.00731079763132 -0.0443428424331 0.0437271222325
1 8.09418412118 5.39091247028 13.6690391233 -3.01382710612 -22.6095784407 132.333284316 0.0125083031171 -0.0123457757247 -0.0256435183063
1 5.29710213577 10.647569586 16.1501481489 -95.1252958239 -145.546328549 -53.3409391245 0.0140292118219 0.0180969305925 0.0120947068503
1 5.48188038933 13.4636204659 2.80194690435 67.5164107906 -35.3787418483 54.3599587926 -0.0107826726015 0.0187019623046 -0.0570199091644
1 8.05876755583 13.537998537 16.1393047716 -47.9366030899 19.5865785893 -66.7284930568 0.00137912164328 -0.00676765459974 0.0103544723674
1 8.23665625013 10.8318602888 2.62522478298 101.533147208 4.52745792083 -70.7254214528 -0.0334856079165 -0.0198029399486 0.00691776855731
1 5.28688676186 10.9940812586 5.24831955068 -101.75131548 136.000369386 -128.979152818 0.0147510159983 -0.0590020669806 0.0343947954369
1 5.41334369932 13.5341892058 8.02734223398 -0.903342907558 8.15818103681 -74.3497970579 -0.0113645817016 -0.0158053556592 0.00503044424094
1 8.11388319112 13.4382612397 5.34658550893 7.00845627845 -62.8074953336 -33.3151422876 -0.00226695603672 0.0140956217263 0.0297686290653
1 8.31943825699 10.7679516046 8.27753794616 149.239814833 -28.5422306157 105.331921208 -0.0790991121965 0.018631623644 -0.0846495181295
1 5.54952536487 10.8257829103 10.9751614931 121.490874196 11.7747152663 135.178239513 -0.0273424787127 -0.00411781182762 -0.0337321170876
1 5.42557748609 13.5247245047 13.5372338864 18.2823714645 5.12237331069 31.4901986965 -0.00291284466644 -0.00825909993976 0.00726047980428
1 8.01949959186 13.56423192 10.6458276641 -74.8801953515 56.8834075502 -145.866231742 0.0155502174804 0.0067050645107 0.0189711272483
1 8.0236958004 10.7034734673 13.5802458764 -64.8714939137 -89.6602176671 64.1571498785 0.0232289766741 0.0190581435545 -0.00194249603483
1 10.830007874 16.0747543916 16.2050108 6.49410242695 -124.595833266 -7.05534835453 -0.0157731139382 0.0173553525308 0.00291770244533
1 10.719505132 2.60735751264 2.71128518973 -71.4492146457 -91.1220062169 2.62604215123 0.022409162053 0.00284709104786 -0.00743219692962
1 13.4972245526 2.75163632105 0.0224732737241 -16.6241192104 36.4394193562 16.8834836744 -0.00178961114949 -0.0158770147794 -0.00608425516392
1 13.5075301471 16.1269877175 2.71124024526 -5.76786224852 -73.903314865 1.57550571125 -0.00134932637746 0.0150606912511 -0.00942375773113
1 10.9020926135 0.213964432069 5.49495759582 79.3103950782 174.213605921 74.3831929914 -0.0134454612963 -0.0453982569045 -0.0178839519207
1 10.6616683219 2.79619252545 7.99346233773 -125.378265399 92.0950544875 -78.3732552499 0.026877760999 0.000426588138481 0.0431426125833
1 13.4660916486 2.86820225989 5.52387702576 -24.2081183402 144.722950321 101.474331522 0.0271214815005 -0.0246686212523 -0.0180240211767
1 13.4905328623 0.0594709443039 8.12201256137 -19.5477936506 62.2097941694 27.8183251092 0.00387852177923 0.00353337597919 0.0154168784405
1 10.7014934233 0.0949714239428 10.9751831247 -96.0236706625 72.2384718911 113.001545188 0.0134343610976 -0.030013068343 -0.0612619520637
1 10.8723004232 2.65233816348 13.447675234 51.2299078737 -18.4196782319 -36.9832938927 -0.0142394261476 0.0417386925336 0.0339049538345
1 13.6766759966 2.89058448126 10.7954631812 140.577390131 168.490668043 -28.5919945905 -0.0259929941197 -0.0225014089105 -0.0154441946004
1 13.3624540742 0.120264551338 13.4222852984 -112.711695126 98.7688257273 -84.9677381675 0.0456644897017 -0.0266296842785 0.00687983071313
1 10.8592736889 5.39218171784 16.115433852 39.6463847993 -28.4908231602 -87.9506161168 -0.0125110414701 -0.0198451048061 0.0128450323574
1 10.9033832751 7.92881289331 2.70359163411 85.3031890376 -155.505355977 -10.4350555651 -0.0087209775578 0.0258006348541 -0.0152058829427
1 13.4740263426 7.85123248758 16.0058179467 -53.6918015804 -209.378104892 -156.868726074 -0.0198590129655 0.0557555578426 0.0659329345329
1 13.6110886447 5.33052819104 2.7150470838 82.412624011 -76.6467528917 13.6970695485 -0.0185620577112 -0.00395651623823 0.00144236688685
1 10.9594354245 5.46290897867 5.3896940474 126.071455526 53.4655881604 -16.6725238047 -0.026902728414 -0.00510602724177 -0.00301324800757
1 10.7252976449 8.02652771089 8.25206744348 -80.6799273571 -82.2280423334 106.890604154 0.00376093741265 -0.0032944415158 -0.0455055409657
1 13.5114696228 8.28428359922 5.33269692745 -10.3538573916 143.216393982 -60.1037163984 -0.0118815582714 -0.0420425590984 0.0155579252423
1 13.5120213222 5.61044045109 7.95789803643 4.54569072587 183.639471046 -124.15582438 0.00437989164101 -0.0245119501426 0.0293928178225
1 10.8399248672 5.27032743094 10.7541771737 15.3290136464 -120.1483884 -56.1054453184 -0.0153648307756 0.0170854858308 -0.000822500591688
1 10.6833987346 7.99910391968 13.4508465038 -129.047064237 -83.9883933089 -60.7240212904 -0.00428023633285 0.0269220614613 0.00135731604083
1 13.2298902222 8.18530226383 10.8022353194 -242.762820294 79.0342897872 0.41175372516 0.0431488581131 0.00322443408961 0.0106078929722
1 13.4634510409 5.604274149 13.32743951 -40.6872066145 150.086356496 -184.149562076 0.0100771948942 -0.060053198579 -0.00472769442904
1 10.8073818991 10.8458910853 0.0270970537336 8.36271317088 27.4033299684 16.9308533451 0.0128622921432 -0.00826601474447 -0.0124556383306
1 10.7751750115 13.3755183157 2.80797661411 -19.156153879 -98.4926879745 87.8368559335 0.019878395483 0.0462966572072 -0.021407536911
1 13.5111047632 13.5937490588 16.0775006375 -2.68865981738 70.6521531916 -112.637211705 -0.00267553448263 -0.011114245835 0.0273321954829
1 13.451656169 10.7911377918 2.81544803654 -57.0058321222 -7.70416611128 85.4555495319 0.00376376753006 0.016295022328 -0.0322633521569
1 10.6390309389 10.899054502 5.42270787727 -140.909668357 53.404483967 28.8845162852 0.0357349930186 -0.0441735714591 0.0140721833817
1 10.876571116 13.4933590926 8.09330525076 62.6029605287 0.413161186661 -17.2047945599 -0.00378660395857 0.0213528308507 -0.00387545652585
1 13.5995259002 13.6369536616 5.42933762845 64.150040251 103.023635653 29.7763004039 -0.0265411335668 -0.0242686869773 0.00660965557281