108
Atom. timestep:0
1 0.0127036534885 16.2105410424 16.211864946 126.951470337 -44.6746395078 -31.4356039646 -0.000704518903168 -0.000704518903168 -0.000704518903168
1 0.00814181739454 2.70242079682 2.71246792259 81.3331096889 -0.877095497021 99.594161528 -0.000704518903168 -0.000704518903168 -0.000704518903168
1 2.70800424123 2.70555701119 16.208335049 54.9573481636 30.4850479823 -66.7345731114 -0.000704518903168 -0.000704518903168 -0.000704518903168
1 2.7036608663 0.000750002577422 2.70617551936 11.5235991705 7.41496199082 36.6701296564 -0.000704518903168 -0.000704518903168 -0.000704518903168
1 16.2135533141 16.2089860882 5.41455256515 -14.551922712 -60.2241809423 95.4405871041 -0.000704518903168 -0.000704518903168 -0.000704518903168
1 16.2130332625 2.70439838112 8.11267962619 -19.7524389114 18.8987473365 51.881325282 -0.000704518903168 -0.000704518903168 0.000704518903168
1 2.70081566373 2.71185392044 5.40463168391 -16.9284263196 93.4541400526 -3.76822456908 -0.000704518903168 -0.000704518903168 -0.000704518903168
1 2.69069083224 16.2116293312 8.10201876942 -118.176740604 -33.7917519408 -54.7272417536 -0.000704518903168 -0.000704518903168 0.000704518903168
1 0.0103250613203 0.0011710770742 10.8131723065 103.165548807 11.6257069317 31.8081286282 -0.000704518903168 -0.000704518903168 0.000704518903168
1 16.2142123702 2.69490785426 13.5120914943 -7.96136173895 -76.006520694 -3.99999333 -0.000704518903168 -0.000704518903168 0.000704518903168
1 2.70882145638 2.70180216059 10.809374668 63.129499622 -7.06345775356 -6.1682561304 -0.000704518903168 -0.000704518903168 0.000704518903168
1 2.71040529496 0.00445775354767 13.5118067066 78.967885369 44.492471456 -6.84787004469 -0.000704518903168 -0.000704518903168 0.000704518903168
1 0.0121006441337 5.39869702725 16.2089161434 120.921376827 -63.1147908633 -60.9236292578 -0.000704518903168 -0.000704518903168 -0.000704518903168
1 16.205066449 8.1090502341 2.70398661363 -99.4205733306 15.5874046524 14.7810724311 -0.000704518903168 0.000704518903168 -0.000704518903168
1 2.71294565613 8.10680317307 16.2141244456 104.371496908 -6.88320553149 -8.8406079941 -0.000704518903168 0.000704518903168 -0.000704518903168
1 2.69763310392 5.40539291742 2.69943694906 -48.7540242016 3.8441104846 -30.7155728906 -0.000704518903168 -0.000704518903168 -0.000704518903168
1 16.2097386342 5.41338301897 5.40709219414 -52.6987215899 83.7451253783 20.8368775217 -0.000704518903168 -0.000704518903168 -0.000704518903168
1 16.2138491493 8.11383622212 8.11563832149 -11.5935704948 63.4472845104 81.4682781353 -0.000704518903168 0.000704518903168 0.000704518903168
1 2.70535590159 8.09984519626 5.40219028446 28.4739520309 -76.4629731531 -28.1822189495 -0.000704518903168 0.000704518903168 -0.000704518903168
1 2.69864631094 5.40186261117 8.10474529211 -38.621954133 -31.458951845 -27.4620149478 -0.000704518903168 -0.000704518903168 0.000704518903168
1 0.00544749324053 5.39867141594 10.812712981 54.3898683213 -63.3709039061 27.2148738319 -0.000704518903168 -0.000704518903168 0.000704518903168
1 0.00343556265971 8.1091937529 13.516003038 34.2705626418 17.0225925889 35.1154430192 -0.000704518903168 0.000704518903168 0.000704518903168
1 2.70837997272 8.11426901063 10.8118920879 58.7146630552 67.7751695678 19.0059422195 -0.000704518903168 0.000704518903168 0.000704518903168
1 2.71392010631 5.40364107275 13.5127834735 114.115998659 -13.6743361053 2.91979825594 -0.000704518903168 -0.000704518903168 0.000704518903168
1 0.00334121711452 10.802176045 16.2107169923 33.327107196 -78.1544861518 -42.9151402538 -0.000704518903168 0.000704518903168 -0.000704518903168
1 16.2121360687 13.5146417634 2.70416508233 -28.7243770445 21.5026978136 16.5657594685 -0.000704518903168 0.000704518903168 -0.000704518903168
1 2.69173940661 13.5081655167 0.00262146013073 -107.690996898 -43.2597688173 26.1295374041 -0.000704518903168 0.000704518903168 -0.000704518903168
1 2.69732859321 10.8092151416 2.69711409656 -51.7991312574 -7.76352006027 -53.9440977524 -0.000704518903168 0.000704518903168 -0.000704518903168
1 0.00399382098734 10.8066915583 5.39450587264 39.8531458824 -32.9993528667 -105.026336637 -0.000704518903168 0.000704518903168 -0.000704518903168
1 0.00227819665895 13.5320979055 8.10203266376 22.6969027083 196.064117205 -54.5882983364 -0.000704518903168 0.000704518903168 0.000704518903168
1 2.70103456412 13.4983149485 5.40676296461 -14.739422457 -141.765450417 17.5445822361 -0.000704518903168 0.000704518903168 -0.000704518903168
1 2.7052173865 10.8110382019 8.1022855063 27.0888010927 10.467082957 -52.0598729245 -0.000704518903168 0.000704518903168 0.000704518903168
1 16.2103999506 10.8185246147 10.816626173 -46.0855575992 85.3312102561 66.3467932202 -0.000704518903168 0.000704518903168 0.000704518903168
1 16.2148716296 13.5121737108 13.5064222391 -1.36876737904 -3.17782812327 -60.6925451683 -0.000704518903168 0.000704518903168 0.000704518903168
1 2.70952979415 13.5061707713 10.7984906802 70.2128773432 -63.2072227081 -115.008133271 -0.000704518903168 0.000704518903168 0.000704518903168
1 2.70654456245 10.8114579969 13.5117880917 40.3605604791 14.6650329509 -7.03401873731 -0.000704518903168 0.000704518903168 0.000704518903168
1 5.39767109594 16.2113554212 16.2088048078 -73.3741038907 -36.5308514422 -62.0369854463 -0.000704518903168 -0.000704518903168 -0.000704518903168
1 5.40501173834 2.70017816013 2.70383521771 0.0323196632408 -23.3034622764 13.2671132761 -0.000704518903168 -0.000704518903168 -0.000704518903168
1 8.10102918383 2.70256777059 0.0134137285636 -64.6230975034 0.592642171193 134.052221042 0.000704518903168 -0.000704518903168 -0.000704518903168
1 8.11338124345 16.2045261587 2.70052451683 58.8974978668 -104.823475908 -19.839895343 0.000704518903168 -0.000704518903168 -0.000704518903168
1 5.40797917162 16.2036458596 5.40691988101 29.706652266 -113.62646704 19.1137462474 -0.000704518903168 -0.000704518903168 -0.000704518903168
1 5.41160313506 2.70645393815 8.09737070112 65.946286466 39.4543175247 -101.207924436 -0.000704518903168 -0.000704518903168 0.000704518903168
1 8.11298853671 2.70471597011 5.40603745796 54.9704304607 22.0746372139 10.2895157699 0.000704518903168 -0.000704518903168 -0.000704518903168
1 8.11072548504 0.0014700756028 8.10105518533 32.3399139017 14.6156921985 -64.3630825772 0.000704518903168 -0.000704518903168 0.000704518903168
1 5.41025153495 16.2085906403 10.8058027713 52.4302854694 -64.1786605069 -41.8872227561 -0.000704518903168 -0.000704518903168 0.000704518903168
1 5.41057097515 2.71170141943 13.509996821 55.6246873928 91.9291299315 -24.9467265576 -0.000704518903168 -0.000704518903168 0.000704518903168
1 8.09551762789 2.70295399105 10.8125546759 -119.738656608 4.45484669236 25.6318229985 0.000704518903168 -0.000704518903168 0.000704518903168
1 8.10249388806 0.0145213556342 13.5058653876 -49.9760553021 145.128491678 -66.2610594831 0.000704518903168 -0.000704518903168 0.000704518903168
1 5.40523067565 5.39977755593 0.00136279202813 2.22169275682 -52.3095041375 13.5428564587 -0.000704518903168 -0.000704518903168 -0.000704518903168
1 5.40484409282 8.1050391054 2.69760216047 -1.64413550488 -24.5238821367 -49.0634587078 -0.000704518903168 0.000704518903168 -0.000704518903168
1 8.10327071541 8.10756540618 0.00208700685216 -42.2077819418 0.739125558836 20.7850046526 0.000704518903168 0.000704518903168 -0.000704518903168
1 8.10555053467 5.41245348176 2.70291039161 -19.4095893977 74.4497533479 4.01885229643 0.000704518903168 -0.000704518903168 -0.000704518903168
1 5.4044005323 5.40692650722 5.41338403949 -6.07974066872 19.1800083438 83.7553306277 -0.000704518903168 -0.000704518903168 -0.000704518903168
1 5.40753604753 8.10852915063 8.11293950945 25.275411409 10.3765699919 54.4801578955 -0.000704518903168 0.000704518903168 0.000704518903168
1 8.10132731623 8.10264094433 5.40065850697 -61.6417735655 -48.5054926915 -43.4999937166 0.000704518903168 0.000704518903168 -0.000704518903168
1 8.10508657488 5.40829225055 8.10439088711 -24.0491873388 32.8374415403 -31.0060649656 0.000704518903168 -0.000704518903168 0.000704518903168
1 5.40234826347 5.39677321765 10.8113214488 -26.6024288941 -82.3528867556 13.2995512575 -0.000704518903168 -0.000704518903168 0.000704518903168
1 5.40613339548 8.11947560075 13.5073629999 11.2488909489 119.841070503 -51.2849365652 -0.000704518903168 0.000704518903168 0.000704518903168
1 8.11201158808 8.10394387359 10.8042887864 45.2009442131 -35.4762001397 -57.0270718254 0.000704518903168 0.000704518903168 0.000704518903168
1 8.10833337806 5.40796213356 13.5039585067 8.41884426987 29.5362717096 -85.3298682231 0.000704518903168 -0.000704518903168 0.000704518903168
1 5.40840498872 10.8054791112 0.000682407511623 33.964823206 -45.1238242661 6.73901133716 -0.000704518903168 0.000704518903168 -0.000704518903168
1 5.4084181902 13.5030919121 2.69505582469 34.0968380182 -93.9958145795 -74.5268163592 -0.000704518903168 0.000704518903168 -0.000704518903168
1 8.10212695082 13.5151352894 0.00516434332967 -53.6454276837 26.4379572719 51.5583692308 0.000704518903168 0.000704518903168 -0.000704518903168
1 8.10243772365 10.8073794321 2.69764435077 -50.5376994563 -26.1206155219 -48.6415557508 0.000704518903168 0.000704518903168 -0.000704518903168
1 5.40729040669 10.8003154678 5.40079345598 22.819002978 -96.7602579266 -42.1505036365 -0.000704518903168 0.000704518903168 -0.000704518903168
1 5.39675550225 13.5087319722 8.09880873859 -82.5300407055 -37.5952143907 -86.8275498448 -0.000704518903168 0.000704518903168 0.000704518903168
1 8.11427489242 13.5139666709 5.40502377903 67.8339875295 14.7517725143 0.152726533849 0.000704518903168 0.000704518903168 -0.000704518903168
1 8.10477677115 10.8056795578 8.10050381865 -27.147224577 -43.1193581224 -69.8767493552 0.000704518903168 0.000704518903168 0.000704518903168
1 5.42344787814 10.8056849417 10.7994226704 184.393716452 -43.0655191272 -105.688231851 -0.000704518903168 0.000704518903168 0.000704518903168
1 5.40402788019 13.5216287219 13.5275690703 -9.80626182034 91.3722817358 150.775765744 -0.000704518903168 0.000704518903168 0.000704518903168
1 8.10650326584 13.5153691177 10.8028543513 -9.88227776191 28.7762405513 -71.3714227771 0.000704518903168 0.000704518903168 0.000704518903168
1 8.10465511908 10.8146840331 13.5203851871 -28.3637452978 46.9253947984 78.9369340865 0.000704518903168 0.000704518903168 0.000704518903168
1 10.8077981273 0.00215888776529 0.00221638610043 -21.9336626856 21.5038137794 22.0787971271 0.000704518903168 -0.000704518903168 -0.000704518903168
1 10.8203558946 2.70429434414 2.69971564845 103.644009369 17.8583775876 -27.9285790901 0.000704518903168 -0.000704518903168 -0.000704518903168
1 13.5155848304 2.71104167463 16.2137979565 30.9333671771 85.331681984 -12.1054988241 0.000704518903168 -0.000704518903168 -0.000704518903168
1 13.5137682134 0.0102274011022 2.7031747737 12.7671973124 102.188946632 6.6626731888 0.000704518903168 -0.000704518903168 -0.000704518903168
1 10.8170673854 0.00597464319051 5.41067760044 70.7589177543 59.6613677873 56.6909403343 0.000704518903168 -0.000704518903168 -0.000704518903168
1 10.8160203461 2.70156636636 8.1078322667 60.2885242056 -9.42140007694 3.40773075686 0.000704518903168 -0.000704518903168 0.000704518903168
1 13.5024277992 2.71665757669 5.40921464702 -100.636943444 141.490702267 42.0614061593 0.000704518903168 -0.000704518903168 -0.000704518903168
1 13.5104144835 0.00300917905785 8.11993861858 -20.7701012531 30.0067266505 124.471248769 0.000704518903168 -0.000704518903168 0.000704518903168
1 10.8181524434 16.2114947698 10.8044628834 81.6094975986 -35.1373659595 -55.2861014943 0.000704518903168 -0.000704518903168 0.000704518903168
1 10.8108551886 2.69942262183 13.5105795347 8.63694942727 -30.8588452465 -19.1195889106 0.000704518903168 -0.000704518903168 0.000704518903168
1 13.5052553275 2.70687653304 10.8066106988 -72.3616608515 43.6802663454 -33.8079484868 0.000704518903168 -0.000704518903168 0.000704518903168
1 13.5074932446 16.212299853 13.5152768331 -49.9824903569 -27.0865337604 27.853394731 0.000704518903168 -0.000704518903168 0.000704518903168
1 10.7980588428 5.39629942873 0.00194983630743 -119.326507469 -87.0907758911 19.4132992141 0.000704518903168 -0.000704518903168 -0.000704518903168
1 10.8114757206 8.10202814712 2.70833986273 14.8422698066 -54.6334647373 58.3135632353 0.000704518903168 0.000704518903168 -0.000704518903168
1 13.5080090554 8.10992179793 16.2136291157 -44.8243822138 24.3030429122 -13.7939065097 0.000704518903168 0.000704518903168 -0.000704518903168
1 13.4999290737 5.41996925487 2.70764277363 -125.624197962 149.607484023 51.342672233 0.000704518903168 -0.000704518903168 -0.000704518903168
1 10.7946920164 5.40595362377 5.41909509007 -152.994771014 9.4511739132 140.865836089 0.000704518903168 -0.000704518903168 -0.000704518903168
1 10.8039227392 8.11191204202 8.10810484103 -60.6875440261 44.2054836728 6.13347395748 0.000704518903168 0.000704518903168 0.000704518903168
1 13.5109785254 8.10419115005 5.40517945099 -15.1296817749 -33.0034355497 1.70944620052 0.000704518903168 0.000704518903168 -0.000704518903168
1 13.5084745153 5.40842273364 8.104256035 -40.1697832485 34.1422724245 -32.354586056 0.000704518903168 -0.000704518903168 0.000704518903168
1 10.8152596384 5.40581824689 10.8075159607 52.6814478382 8.09740507166 -24.7553286768 0.000704518903168 -0.000704518903168 0.000704518903168
1 10.8034010272 8.10891063874 13.515597673 -65.9046637263 14.1914510408 31.0617932246 0.000704518903168 0.000704518903168 0.000704518903168
1 13.513170617 8.09599156236 10.8201032034 6.79123350614 -114.999311909 101.117097348 0.000704518903168 0.000704518903168 0.000704518903168
1 13.5094477302 5.41439176652 13.509678376 -30.4376337365 93.832600908 -28.1311764517 0.000704518903168 -0.000704518903168 0.000704518903168
1 10.8054911526 10.8053153716 0.000908548205442 -45.0034096889 -46.7612196202 9.00041826087 0.000704518903168 0.000704518903168 -0.000704518903168
1 10.8217359493 13.5103024058 2.69229907947 117.444556363 -21.8908785915 -102.094268426 0.000704518903168 0.000704518903168 -0.000704518903168
1 13.5069467107 13.5084570068 0.0065814318863 -55.4478288425 -40.344867545 65.7292547064 0.000704518903168 0.000704518903168 -0.000704518903168
1 13.5326288945 10.806493378 2.70484174142 201.374007163 -34.9811562255 23.3323503646 0.000704518903168 0.000704518903168 -0.000704518903168
1 10.8112073799 10.8141696075 5.4000877474 12.1588630039 41.7811389613 -49.2075893934 0.000704518903168 0.000704518903168 -0.000704518903168
1 10.8039515289 13.5059066235 8.11962735615 -60.3996464602 -65.8487006914 121.35862448 0.000704518903168 0.000704518903168 0.000704518903168
1 13.5045224632 13.512251866 5.40650043578 -79.6903033286 -2.39627598016 14.919294005 0.000704518903168 0.000704518903168 -0.000704518903168
1 13.5097668421 10.8157152239 8.10943159397 -27.2465147095 57.2373023944 19.4010033353 0.000704518903168 0.000704518903168 0.000704518903168
1 10.80564623 10.8077935523 10.8055431502 -43.4526362516 -21.9794129544 -44.4834344227 0.000704518903168 0.000704518903168 0.000704518903168
1 10.818626429 13.5168211296 13.5058025975 86.3493527062 43.2963596447 -66.8889609409 0.000704518903168 0.000704518903168 0.000704518903168
1 13.5157972364 13.49691558 10.8063060493 33.0574277386 -155.759134775 -36.8544433746 0.000704518903168 0.000704518903168 0.000704518903168
1 13.514387676 10.7997839536 13.519704122 18.9618239292 -102.075399961 72.1262832422 0.000704518903168 0.000704518903168 0.000704518903168
108
Atom. timestep:1.09754150702
1 0.139439020106 16.1674663848 16.1807867474 93.6393587094 -28.0188207425 -22.8195778361 -0.0220104477047 0.012142781094 0.00530695737613
1 0.0865790451419 2.70392533415 2.81463312128 52.8692943738 4.16579153692 79.8963169871 -0.0188025887608 0.00221425676684 -0.0137205508696
1 2.76649680063 2.73366114481 16.1416883939 49.732412698 15.6125544614 -49.0597143348 -0.00365717908875 -0.0106024576721 0.0119205649631
1 2.71767243247 0.00488787263295 2.7490003349 14.8604887445 -2.85487172457 42.0273106913 0.00191349810734 -0.00665456930221 0.0026372941606
1 16.1914633906 16.1565290187 5.50432245243 -30.3719850266 -22.2816890783 51.6573111969 -0.0108360102686 0.028069497933 -0.0342231868844
1 16.1891661625 2.7246003112 8.16472543071 -24.9712561353 16.8771211863 38.5157289378 -0.00312369387553 -0.00183348108048 -0.00910783264571
1 2.68421867408 2.80559457196 5.40424490014 -11.2836238488 70.1199827887 5.73575449103 0.0041780784448 -0.0152572910518 0.00627699192962
1 2.58255173823 16.185884396 8.0442371163 -59.1862007286 -2.98719213051 -47.7956142868 0.042086702082 0.0219097704347 0.0052344754302
1 0.113902104277 0.0121756790435 10.8493631438 78.1677654656 7.0975645864 33.8302454043 -0.0157948440131 -0.0031098980937 2.05479838301e-05
1 16.205763881 2.61800135093 13.5043944958 -7.22804326785 -58.9438496364 -11.2062380684 0.000624786044474 0.0111458010375 -0.00356546902205
1 2.77822526121 2.69024754772 10.7994124825 62.0222958081 -16.7264243781 -13.9484246556 -0.00178551312973 -0.00631939565402 -0.00484982562553
1 2.79334288969 0.0483984300851 13.4979337739 68.167726949 32.3989218957 -22.6854497371 -0.00796632024165 -0.00713604165634 -0.0102233571202
1 0.133501637731 5.33707300891 16.1458365855 91.5127199975 -42.9981011234 -51.5939226493 -0.0188321764984 0.0132443173978 0.00511291545412
1 16.1107760893 8.11547183374 2.71178220023 -58.6862275676 -14.2225106453 -6.22184097526 0.0290420949134 -0.0222867684957 -0.0131336689031
1 2.81957391089 8.09805489451 16.2036424062 82.704481453 -10.0413268739 -11.8946833396 -0.0149174704604 -0.00222435932395 -0.00329650603665
1 2.6500657698 5.4114887305 2.66807440078 -33.0059866008 8.32086517655 -24.2435197348 0.0106237497712 0.00262771006332 0.00435924609802
1 16.1540604442 5.50065793189 5.43035890405 -45.9396779594 70.5150977072 21.3191193304 0.00538346140864 -0.00948318156977 1.33785276982e-05
1 16.2020272587 8.18219154109 8.20265566148 -9.57203837978 58.7443357858 74.1875366014 0.00106801360522 -0.00409268585101 -0.00526560116329
1 2.73366568918 8.02259394194 5.37261858271 20.2360843168 -58.2041304489 -24.2125475918 -0.00588820785947 0.012691448554 0.00286529255617
1 2.65869657421 5.37410639516 8.08133081549 -32.1089668823 -14.2185907313 -9.97958090535 0.00429981055629 0.0111171508894 0.0115778718166
1 0.0645613125902 5.3347770889 10.8443563428 51.6885809312 -48.2480867106 31.7216359325 -0.00254318717729 0.0101946442198 0.00318556715252
1 0.0463891608353 8.12212368649 13.5510847632 46.8121006033 1.68042221507 25.0302170971 0.00733268266096 -0.0105543823765 -0.00764438518793
1 2.76803149463 8.18520601533 10.8307577317 45.6637438086 58.0311306264 13.1929371543 -0.0088693966433 -0.00671244758741 -0.00430764513973
1 2.83110541308 5.39382874927 13.5124855536 91.7505017626 0.304911081323 -5.88165442109 -0.0156501960201 0.00985264009295 -0.00555570375104
1 0.0391228527844 10.7220936992 16.1654331611 30.4580017168 -62.6554434753 -37.6322709636 -0.00244119439234 0.0104015292741 0.00390177309696
1 16.1814872268 13.5411467366 2.72274704096 -25.9980357698 29.0954749443 17.7034034253 0.0021344679868 0.00527687760462 0.00105905623993
1 2.5827675099 13.4607739745 0.0297855016388 -81.75693053 -42.9779779269 21.3412913268 0.0187868143007 -6.98731541761e-05 -0.00381293247463
1 2.64545960392 10.7954059319 2.64028747223 -38.1513470575 -20.7643158522 -47.4050547744 0.00942026429011 -0.00823700828617 0.00445650800183
1 0.045040442184 10.7709240753 5.29723197926 33.6016834225 -31.7515868048 -56.9599808956 -0.00298780844234 0.000349523255174 0.0329223596659
1 0.0188342073088 13.7176678383 8.05004403073 -0.88586565268 114.653494102 -29.7066305813 -0.0177076909965 -0.0586904846719 0.0211660191321
1 2.68717118408 13.3532057032 5.41558632286 -9.00349526821 -112.339930169 -9.81168394101 0.00330807885076 0.0211833690033 -0.0184622312563
1 2.72927138553 10.8145884039 8.04866336196 12.6237284294 -11.1226353612 -41.9405020083 -0.00903638304291 -0.0157057986113 0.00736587622343
1 16.1679941855 10.9007972582 10.8814672075 -22.5513023776 52.6025561317 45.2659360466 0.0181197502804 -0.0250047557728 -0.0138718564475
1 16.2145727064 13.5110642842 13.4465253516 1.361530689 3.26384753305 -41.9506645963 0.0016448495357 0.00471195007384 0.0135354377466
1 2.78549587343 13.439209002 10.6837510925 65.7132430759 -56.0924504169 -84.5144305044 -0.00438093081245 0.00523021669337 0.02023949555
1 2.75240788321 10.8316714871 13.5018263002 42.8878753358 25.206358614 -12.0210481626 0.00039236667149 0.00697721063022 -0.00248730591423
1 5.32232269353 16.1794185637 16.1541680007 -58.6500015203 -13.1349506876 -24.8049292722 0.0106791070212 0.0177949168005 0.0276130508366
1 5.40453421881 2.67471623029 2.72476310006 -2.39349285247 -22.8403006532 29.3695700803 -0.00280744920011 0.000495082281378 0.0108137701911
1 8.03340295602 2.70005004789 0.150494955816 -54.9162950146 -8.92161604941 107.273085044 0.00717810518734 -0.00767723754014 -0.0176944656934
1 8.1744741645 16.0985895374 2.68610482105 49.3188019904 -80.1028277381 -0.808605067598 -0.00639512076447 0.0169060353148 0.0127963015169
1 5.43665140926 16.0868937264 5.42251969147 19.3339774721 -91.9001109778 4.48112051877 -0.00667429322125 0.0148600057043 -0.0103582365238
1 5.47622018917 2.74051177689 7.9926890305 45.4451250673 15.2626992777 -83.0620184819 -0.0134897681668 -0.0160935218381 0.0129744278328
1 8.16963158464 2.72424397752 5.40945890772 44.5828959029 9.19284154022 -10.0382382791 -0.00743205253699 -0.00916911081043 -0.0132491392723
1 8.14570667054 0.0175125792916 8.03561220606 30.6454800047 14.1907601939 -49.9728071206 -0.00124902135154 -0.000588857240447 0.00993506837412
1 5.45961022634 16.1423524102 10.7554498014 30.4611231245 -52.6059273991 -52.0810759838 -0.014894530736 0.00794199831262 -0.0059887384766
1 5.46830171476 2.80265881803 13.4879977921 45.3496685333 64.794804073 -9.08483254333 -0.00805458490735 -0.0188230013159 0.012288737597
1 7.98098846193 2.7091419231 10.8284137519 -75.3985545423 7.91293435773 -7.48680361744 0.0293352786202 0.00257355124214 -0.0234575374439
1 8.05443691051 0.159830153684 13.4408946175 -32.2600717179 107.355418283 -44.6484541658 0.0113579850846 -0.0260398511663 0.0154854377432
1 5.41180193274 5.34961137696 0.0145668895842 12.4271537064 -33.2248801321 9.80642372705 0.00640778599399 0.0126651695169 -0.00163993782318
1 5.39962839138 8.07728600019 2.64863020676 -10.6009866218 -26.5009350871 -35.7500341734 -0.00595054631813 -0.00115890639667 0.00933339038664
1 8.0595942967 8.10381659456 0.0214589534615 -34.5813868725 -10.8717291006 11.0558215509 0.00550866433293 -0.00750262930582 -0.00711988203288
1 8.08357966781 5.48470425275 2.71116166553 -20.824941788 48.8078719963 13.2614001393 -0.00075840771845 -0.0177892504162 0.00544112997135
1 5.39861686544 5.42799635192 5.49342695251 -4.23025639188 18.851839599 52.029005746 0.000906381529926 -0.000348830374865 -0.0214987375382
1 5.43071484079 8.11403687718 8.16779414714 12.7223215419 -5.22197964372 40.0348791233 -0.00881491595387 -0.0106376735359 -0.0109261951863
1 8.03750800379 8.05729658936 5.35579859401 -50.9387450813 -27.6313317554 -35.1851739315 0.00747461150705 0.0140739613686 0.00625010781804
1 8.07855043448 5.44056948984 8.08094033586 -25.4796263392 22.5295021125 -1.93701700075 -0.00264468024051 -0.00711068836575 0.0209465736514
1 5.37502436987 5.32039009165 10.8181675195 -21.7674684985 -44.5409426314 -7.88674018234 0.00322363485364 0.0262757479852 -0.0152544940503
1 5.42375966661 8.2382264279 13.4517895875 24.4367590715 86.1886410694 -48.5448202281 0.00868228590768 -0.0222188315696 0.00224110596713
1 8.15904147337 8.06507023287 10.747813907 37.7569827942 -34.952096617 -40.3910245157 -0.00546206790985 0.000502704273701 0.0114124797135
1 8.11620474812 5.43950398715 13.418002789 5.26858642362 27.0369417844 -64.9110997631 -0.00178336167582 -0.00176821271681 0.0133757715111
1 5.43909364439 10.760813243 0.00735676499607 16.288467564 -31.6602800901 4.20053701611 -0.0120040480994 0.00941721615315 -0.00227022055996
1 5.43744901874 13.4062095572 2.62200106177 11.3684018625 -76.200097714 -50.9861345795 -0.0158507683115 0.0127508404096 0.0162140467291
1 8.05420963808 13.5438715436 0.0521335968412 -24.5551515333 24.4681156228 26.6901002024 0.0196544554433 -0.00246265603678 -0.0161839045402
1 8.05623881153 10.7783486261 2.65098618973 -26.0369400751 -26.4857583147 -31.1521388779 0.0164159503741 -2.96259313559e-05 0.0115200103953
1 5.42991888136 10.6991395113 5.35321314292 15.2853971773 -82.3023260932 -44.6303563346 -0.00623971788491 0.0104551496674 -0.000990948775558
1 5.31842005384 13.4681450029 8.00524511772 -49.1871280918 -35.6756339885 -80.57653434 0.0234260764171 0.000977733210646 0.00528972637934
1 8.18826287652 13.5249132723 5.40217571852 65.5987843225 1.60875520446 -7.07713262867 -0.00202456106553 -0.00839699080692 -0.00418180202305
1 8.07870851745 10.7618673351 8.01999689194 -16.1770250916 -32.8579973074 -79.1752308713 0.0085477665279 0.00757772180663 -0.00636939374685
1 5.61287148252 10.7683079782 10.6940052923 148.794003698 -17.4472775362 -77.266356327 -0.0247830021192 0.016679134467 0.0194107255817
1 5.39399863745 13.6094173477 13.6753398207 -7.86612620206 56.9633028693 103.317297874 0.00134475680809 -0.0247157523312 -0.0326139675221
1 8.09323073637 13.545447844 10.7337354893 -15.6019747695 24.6639506334 -47.0153230013 -0.00340294812041 -0.00275238053506 0.0163835787336
1 8.07828169049 10.8690760564 13.5983717299 -15.7047310165 53.571259774 56.0477324371 0.00852679684142 0.00396059085367 -0.0151517585882
1 10.7844364833 0.027150815295 0.021249683275 -19.2117813817 24.5570132769 8.60940947394 0.00258882567384 0.00169887066484 -0.00875949054941
1 10.9216068126 2.72600752875 2.67536467166 70.5125394834 22.4781878357 -11.9357177052 -0.0221613567658 0.00243007289043 0.0101532779697
1 13.5528097315 2.80192315948 16.2014575035 37.8182832016 77.2796082344 -9.81055100911 0.00312679849898 -0.00556209009398 0.00128378269814
1 13.5331121693 0.117399700095 2.71061572251 26.039474187 87.441703394 6.61134426078 0.0083164552629 -0.0110181945409 -0.000358700717942
1 10.892635404 0.0649907895634 5.46820229123 64.3056341602 42.8758682932 43.7227586557 -0.00471225904633 -0.0106172104515 -0.00900134686147
1 10.8693315854 2.694519969 8.11760550705 26.5607129408 -1.17075145187 18.6554223145 -0.022524298903 0.00521755156984 0.00966979651978
1 13.4045827012 2.86412254839 5.45298214683 -67.4917502166 120.435466126 33.9060754227 0.021798631123 -0.0138775584227 -0.00704703135582
1 13.4922239861 0.0319295660766 8.24666985423 -6.79833378077 19.0965933763 96.7487803174 0.0114513443334 -0.00755652123315 -0.0200400284594
1 10.8965832257 16.1767335329 10.7503962093 51.027288803 -25.2362078779 -36.1238567032 -0.0218081841715 0.00644228916974 0.0147367993561
1 10.8166234124 2.670368791 13.4899778929 0.329340222956 -18.316013521 -17.6064002488 -0.00426492374605 0.0083376997295 0.00121380470831
1 13.4362405877 2.75340171724 10.7771872833 -44.452044523 40.0557587697 -13.0417472517 0.0190886890522 -0.00205998422518 0.0144591078369
1 13.4615812709 16.1841268228 13.5433415657 -26.1220716426 -21.6540592315 21.908217831 0.0162594294895 0.00493696857717 -0.00323919540056
1 10.6737418954 5.30961901774 0.0183054058256 -100.801897537 -63.1993664669 6.10291103132 0.0128422248754 0.0161527076692 -0.00910932197982
1 10.8209670035 8.05332401981 2.76837918971 -5.15806468781 -23.5378678716 47.3897698077 -0.016228031277 0.0227076567871 -0.007523353337
1 13.4591371809 8.12802006847 16.2015212978 -43.0338171148 2.2318585158 -4.98386925198 0.00168990917971 -0.0143979042109 0.00687421542915
1 13.3736918946 5.56743575213 2.75793592281 -94.0566523578 103.232571846 35.3901233662 0.0220164738313 -0.0335364993297 -0.0105395204274
1 10.6384431683 5.41923342222 5.56109138766 -118.869290103 17.2561736984 105.593264688 0.0262349552203 0.00586545801753 -0.0255140337446
1 10.7445166883 8.16011478144 8.11096474935 -40.9060883831 42.2807076155 -4.07915216736 0.0138497389141 -0.0021073197951 -0.00714703613631
1 13.4898340283 8.0771872107 5.41608687745 -25.9400115397 -7.96418790375 24.944774888 -0.00648628623435 0.0178260827012 0.015188604946
1 13.4681377436 5.44973808204 8.07509898708 -29.8375331718 43.4538588544 -14.959823875 0.00703499220851 0.00592359288637 0.0124602464846
1 10.8619326888 5.41249171525 10.7795286188 23.738839818 2.88375281451 -26.2392661847 -0.0191943202334 -0.00279515221738 -0.000528099268977
1 10.7306442611 8.12339143916 13.5480037638 -65.4693553604 11.2987139355 25.9433103827 0.00138151658755 -0.00190514301324 -0.00392984709002
1 13.5204468952 7.98525628952 10.9196739422 7.17433397172 -72.5360735584 69.2412378419 0.00112565935361 0.0302695728023 -0.0231894903548
1 13.4779805874 5.50539144722 13.4882925601 -24.8145682304 60.2653286222 -1.48593355283 0.00390788177512 -0.0245897072084 0.0198900567884
1 10.7592181071 10.7569999991 0.0134228878797 -36.7947964279 -38.221508084 15.1820904739 0.00533682463687 0.00598809762593 0.00353936019384
1 10.9412648964 13.4852777504 2.59182822549 90.0995944405 -23.675648503 -69.6226864655 -0.0209549000692 -0.00049050687953 0.0238640664135
1 13.4583763535 13.4661421672 0.0683881199024 -21.8344501567 -35.0540613631 36.5760077635 0.0242539308964 0.00346268856753 -0.0220150223012
1 13.729645752 10.7705997386 2.72599896498 135.48199591 -25.2737812069 10.7894218545 -0.0469918168722 0.00973394813681 -0.00946231132056
1 10.8229910353 10.8541672811 5.34568756018 8.12152362455 26.0782111917 -49.3242441878 -0.00257023247715 -0.0107412249031 0.000516438893017
1 10.7428994448 13.4390441962 8.23855123315 -45.4944492668 -51.0607225252 82.3072217034 0.0110188258995 0.0100668412192 -0.0275095167143
1 13.4228615975 13.5116019555 5.42439515482 -63.5365728313 3.11848375615 18.3754062695 0.0114236740034 0.00389339134203 0.00190751631347