108
Atom. timestep:0
1 16.2135866784 16.2146542508 0.000527281622932 -141.34066435 -34.5834220181 52.7196555822 -0.000704518903168 -0.000704518903168 -0.000704518903168
1 16.2123344912 2.70026544911 2.70099719985 -266.559381517 -223.463593672 -150.288520847 -0.000704518903168 -0.000704518903168 -0.000704518903168
1 2.70340284876 2.70364828815 0.00263123208092 90.2763686762 114.820307846 263.114700034 -0.000704518903168 -0.000704518903168 -0.000704518903168
1 2.70175766978 0.000574253465426 2.7017677581 -74.2415276756 57.4168398015 -73.2326957365 -0.000704518903168 -0.000704518903168 -0.000704518903168
1 16.2141208616 16.2126350907 5.40593729848 -87.9223456154 -236.499437445 93.7213405549 -0.000704518903168 -0.000704518903168 -0.000704518903168
1 0.000130541870792 2.70561715549 8.1063036596 13.0456806221 311.707040884 -119.625533081 -0.000704518903168 -0.000704518903168 0.000704518903168
1 2.70191912492 2.70460505467 5.40399331746 -58.0960138636 210.496959737 -100.676759251 -0.000704518903168 -0.000704518903168 -0.000704518903168
1 2.70378498881 0.00135276904156 8.10846987683 128.490374055 135.268396917 96.9961882854 -0.000704518903168 -0.000704518903168 0.000704518903168
1 16.2146222503 0.00138554158584 10.8105724251 -37.7834712943 138.545651324 57.251011325 -0.000704518903168 -0.000704518903168 0.000704518903168
1 0.00143537228146 2.70310369216 13.5118952653 143.528720853 60.3607094698 -60.464965326 -0.000704518903168 -0.000704518903168 0.000704518903168
1 2.69898889478 2.70049881558 10.8086809223 -351.119026385 -200.126947409 -131.899265047 -0.000704518903168 -0.000704518903168 0.000704518903168
1 2.70326284151 0.00206481478299 13.5132674678 76.275644325 206.472970604 76.7552864312 -0.000704518903168 -0.000704518903168 0.000704518903168
1 16.212911692 5.40227457039 0.00169141816453 -208.839304541 -272.551466003 169.133308997 -0.000704518903168 -0.000704518903168 -0.000704518903168
1 0.00146651243185 8.10619385085 2.70391089526 146.642735873 -130.606407851 141.081018562 -0.000704518903168 0.000704518903168 -0.000704518903168
1 2.70600760247 8.10769850127 0.000807018674229 350.751738677 19.8586334909 80.6933605329 -0.000704518903168 0.000704518903168 -0.000704518903168
1 2.70456384775 5.40499197796 2.70233287748 206.376267566 -0.810710067179 -16.7207584479 -0.000704518903168 -0.000704518903168 -0.000704518903168
1 0.000886712320758 5.40191199243 5.40579688979 88.6627251347 -308.809261499 79.6804719985 -0.000704518903168 -0.000704518903168 -0.000704518903168
1 16.2149868804 8.10846722894 8.11079200244 -1.32046518579 96.7313992998 329.208747965 -0.000704518903168 0.000704518903168 0.000704518903168
1 2.70341601023 8.10509791902 5.40445300611 91.5925162991 -240.199590352 -54.7078948929 -0.000704518903168 0.000704518903168 -0.000704518903168
1 2.70104121257 5.40440682445 8.10702551837 -145.887248175 -59.3260608759 -47.4396562681 -0.000704518903168 -0.000704518903168 0.000704518903168
1 5.27328936404e-06 5.40479613874 10.8098918999 0.518822559489 -20.3946317462 -10.8015021061 -0.000704518903168 -0.000704518903168 0.000704518903168
1 0.000166054662683 8.10603381625 13.5115306036 16.5969597885 -146.609867701 -96.9311318795 -0.000704518903168 0.000704518903168 0.000704518903168
1 2.70092977562 8.10809384761 10.8091421507 -157.030943024 59.3932673267 -85.7764277746 -0.000704518903168 0.000704518903168 0.000704518903168
1 2.70178873395 5.40406573687 13.5135304283 -71.1351109576 -93.434818931 103.051337244 -0.000704518903168 -0.000704518903168 0.000704518903168
1 16.2133876569 10.8068493309 16.2126700514 -161.242815803 -315.058406014 -233.00336501 -0.000704518903168 0.000704518903168 -0.000704518903168
1 0.0010773577159 13.5126928534 2.70257574822 107.727264527 19.293850053 7.56631529371 -0.000704518903168 0.000704518903168 -0.000704518903168
1 2.70199570872 13.5125003366 16.2139751906 -50.4376341527 0.0421695468153 -102.48944951 -0.000704518903168 0.000704518903168 -0.000704518903168
1 2.70450409333 10.8092625374 2.70364841739 200.400825619 -73.7377486527 114.833232264 -0.000704518903168 0.000704518903168 -0.000704518903168
1 5.96097858087e-05 10.8103482551 5.4046300867 5.95247216918 34.8340145483 -36.9998363211 -0.000704518903168 0.000704518903168 -0.000704518903168
1 16.2137276693 13.514915882 8.10510531123 -127.24157769 241.596700137 -239.460369155 -0.000704518903168 0.000704518903168 0.000704518903168
1 2.70380801719 13.5152743335 5.40504521461 130.7932119 277.441850598 4.51295484554 -0.000704518903168 0.000704518903168 -0.000704518903168
1 2.70229764987 10.8091944874 8.10468630566 -20.2435195529 -80.5427578829 -281.360926317 -0.000704518903168 0.000704518903168 0.000704518903168
1 16.2140803683 10.8120207824 10.8091733016 -91.9716716896 202.086745773 -82.6613323152 -0.000704518903168 0.000704518903168 0.000704518903168
1 16.2118522546 13.5111275371 13.5113085503 -314.7830399 -137.237784442 -119.1364585 -0.000704518903168 0.000704518903168 0.000704518903168
1 2.70108533032 13.5105151645 10.8087011499 -141.475473397 -198.475045642 -129.876505393 -0.000704518903168 0.000704518903168 0.000704518903168
1 2.70288027082 10.8086627437 13.5143632686 38.0185754037 -133.717127475 186.335365489 -0.000704518903168 0.000704518903168 0.000704518903168
1 5.40537538136 6.91145991537e-05 16.214431358 37.529629144 6.9029534976 -56.8727091369 -0.000704518903168 -0.000704518903168 -0.000704518903168
1 5.40284842574 2.70252738272 2.69963145355 -215.165931358 2.72976553343 -286.863149702 -0.000704518903168 -0.000704518903168 -0.000704518903168
1 8.10858152121 2.70144970316 0.00432198119963 108.160626789 -105.038189493 432.189610824 0.000704518903168 -0.000704518903168 -0.000704518903168
1 8.10773528841 16.213723985 2.7029729244 23.5373472643 -127.610009982 47.2839333158 0.000704518903168 -0.000704518903168 -0.000704518903168
1 5.40370810912 0.00280535722493 5.40596855673 -129.197594032 280.527214324 96.8471656106 -0.000704518903168 -0.000704518903168 -0.000704518903168
1 5.40632699577 2.70509602328 8.10934100711 132.691069866 259.593819857 184.109215716 -0.000704518903168 -0.000704518903168 0.000704518903168
1 8.11009136267 2.70046429125 5.40445601347 259.144771584 -203.579379963 -54.4071589388 0.000704518903168 -0.000704518903168 -0.000704518903168
1 8.10905934043 2.89797829899e-05 8.109075345 155.942548129 2.8894719069 157.543005508 0.000704518903168 -0.000704518903168 0.000704518903168
1 5.40705654711 0.000212877686525 10.8095110792 205.646203287 21.2792621427 -48.883573005 -0.000704518903168 -0.000704518903168 0.000704518903168
1 5.40287260854 2.70095261698 13.5118510269 -212.747650963 -154.746807366 -64.8888025048 -0.000704518903168 -0.000704518903168 0.000704518903168
1 8.10750030059 2.70245755053 10.8108868123 0.0385650080133 -4.2534529859 88.6897406671 0.000704518903168 -0.000704518903168 0.000704518903168
1 8.10883489963 16.2138407495 13.5115079961 133.498468887 -115.933553422 -99.1918832943 0.000704518903168 -0.000704518903168 0.000704518903168
1 5.4039439897 5.40319577301 0.000358045660129 -105.609535379 -180.431204582 35.7960594103 -0.000704518903168 -0.000704518903168 -0.000704518903168
1 5.40394665788 8.10533518808 2.70195715063 -105.342717365 -216.472684233 -54.2934434485 -0.000704518903168 0.000704518903168 -0.000704518903168
1 8.10699639774 8.10593085006 16.2135777591 -50.3517196529 -156.906486834 -142.232590761 0.000704518903168 0.000704518903168 -0.000704518903168
1 8.10717212352 5.40502250481 2.70415037437 -32.7791411236 2.24197452984 165.028929763 0.000704518903168 -0.000704518903168 -0.000704518903168
1 5.40280946885 5.40548345163 5.40407450723 -219.061620299 48.336655834 -92.5577832009 -0.000704518903168 -0.000704518903168 -0.000704518903168
1 5.40360766602 8.1066161953 8.11285886632 -139.241903885 -88.3719628489 535.895134506 -0.000704518903168 0.000704518903168 0.000704518903168
1 8.10731029671 8.11082666837 5.40572115123 -18.96182223 332.675341453 72.106616507 0.000704518903168 0.000704518903168 -0.000704518903168
1 8.10729031905 5.40472255172 8.10526551973 -20.9595888635 -27.7533344111 -223.439518775 0.000704518903168 -0.000704518903168 0.000704518903168
1 5.40547913429 5.40560883536 10.8113829944 47.904922077 60.875029042 138.307941341 -0.000704518903168 -0.000704518903168 0.000704518903168
1 5.40386858534 8.10811822352 13.5112186019 -113.149971801 61.8308583437 -128.131303693 -0.000704518903168 0.000704518903168 0.000704518903168
1 8.10535128385 8.11037976073 10.8115900164 -214.863107067 287.98457797 159.010144391 0.000704518903168 0.000704518903168 0.000704518903168
1 8.10473779832 5.40438125354 13.513765914 -276.211659937 -61.8831520579 126.599901563 0.000704518903168 -0.000704518903168 0.000704518903168
1 5.40483262608 10.8098752247 0.00146367322508 -16.7458978273 -12.4690283974 146.358815198 -0.000704518903168 0.000704518903168 -0.000704518903168
1 5.40362039792 13.5098848088 2.7014153022 -137.968713426 -261.510607755 -108.478285696 -0.000704518903168 0.000704518903168 -0.000704518903168
1 8.10905889602 13.5126106149 16.2145490392 155.89810691 11.069993493 -45.1045827937 0.000704518903168 0.000704518903168 -0.000704518903168
1 8.10603295854 10.8119426738 2.70330525897 -146.695639171 194.275880836 80.5173901684 0.000704518903168 0.000704518903168 -0.000704518903168
1 5.40597779233 10.8098491772 5.40541045958 97.7707257523 -15.0737696867 41.0374517743 -0.000704518903168 0.000704518903168 -0.000704518903168
1 5.40717436103 13.513397987 8.10723552853 217.427595455 89.8072089843 -26.4386404051 -0.000704518903168 0.000704518903168 0.000704518903168
1 8.10949537409 13.5152538088 5.40619616765 199.54591443 275.389382887 119.608257668 0.000704518903168 0.000704518903168 -0.000704518903168
1 8.10553799673 10.8084237924 8.10976410751 -196.191819611 -157.612249641 226.419256215 0.000704518903168 0.000704518903168 0.000704518903168
1 5.40395277287 10.8101743972 10.8095333599 -104.731218662 17.4482296868 -46.6555016466 -0.000704518903168 0.000704518903168 0.000704518903168
1 5.40647667375 13.5122529437 13.5115861121 147.658867278 -24.6971185128 -91.3802863242 -0.000704518903168 0.000704518903168 0.000704518903168
1 8.11051445799 13.5154315043 10.8096502417 301.454303817 293.158936913 -34.9673207803 0.000704518903168 0.000704518903168 0.000704518903168
1 8.10719859827 10.811202473 13.5123832564 -30.1316663287 120.255809812 -11.6658570485 0.000704518903168 0.000704518903168 0.000704518903168
1 10.8109796559 0.000685853011919 0.000663082030304 97.9740944053 68.5767943795 66.2996962324 0.000704518903168 -0.000704518903168 -0.000704518903168
1 10.8082919732 2.70440789377 2.70203364835 -170.79416982 190.780869417 -46.6436707407 0.000704518903168 -0.000704518903168 -0.000704518903168
1 13.5133717387 2.70230900626 16.2124658432 87.1823785717 -19.1078798167 -253.424181162 0.000704518903168 -0.000704518903168 -0.000704518903168
1 13.5116692889 0.00063080214505 2.70362218028 -83.0626072268 63.0717077277 112.209520881 0.000704518903168 -0.000704518903168 -0.000704518903168
1 10.8124833349 0.00102596060692 5.40496459955 248.34199224 102.587553661 -3.54855119963 0.000704518903168 -0.000704518903168 -0.000704518903168
1 10.8102928898 2.70235289723 8.10784470483 29.2974864378 -14.7187834744 34.478989218 0.000704518903168 -0.000704518903168 0.000704518903168
1 13.5096221758 2.70055359663 5.40370331885 -287.773910838 -194.648842224 -129.676620252 0.000704518903168 -0.000704518903168 -0.000704518903168
1 13.5120776072 16.2145818031 8.10877339977 -42.2307745587 -41.828194393 127.348482866 0.000704518903168 -0.000704518903168 0.000704518903168
1 10.8103249225 16.213555077 10.8086391017 32.5007580579 -144.50080879 -136.081319957 0.000704518903168 -0.000704518903168 0.000704518903168
1 10.8107216959 2.70134638185 13.5122100181 72.178097253 -115.370320597 -28.9896854394 0.000704518903168 -0.000704518903168 0.000704518903168
1 13.5090120682 2.70422243825 10.8102370188 -348.784668396 172.235317402 23.7103830792 0.000704518903168 -0.000704518903168 0.000704518903168
1 13.5113282204 0.000119369766759 13.5101825816 -117.169449164 11.9284702259 -231.733330864 0.000704518903168 -0.000704518903168 0.000704518903168
1 10.8105147683 5.40734150893 0.00141624322902 51.4853361806 234.142385528 141.615815622 0.000704518903168 -0.000704518903168 -0.000704518903168
1 10.8107765273 8.10725530972 2.70318647763 77.661234255 -24.4605216222 68.6392563186 0.000704518903168 0.000704518903168 -0.000704518903168
1 13.5114427635 8.10704722531 0.00218973385167 -105.715139179 -45.2689628226 218.964877393 0.000704518903168 0.000704518903168 -0.000704518903168
1 13.5103253877 5.4052843284 2.70299328731 -217.452719682 28.4243339071 49.320224132 0.000704518903168 -0.000704518903168 -0.000704518903168
1 10.8108202499 5.40521359928 5.40303365525 82.0334944932 21.3514217561 -196.642980122 0.000704518903168 -0.000704518903168 -0.000704518903168
1 10.8114126468 8.10466251404 8.10985138085 141.27318716 -283.740087385 235.146589668 0.000704518903168 0.000704518903168 0.000704518903168
1 13.5111833925 8.10747391902 5.40397236893 -131.652243832 -2.59959192677 -102.77161317 0.000704518903168 0.000704518903168 -0.000704518903168
1 13.5151189096 5.4050444996 8.10485319667 261.899466368 4.44145384523 -264.671825008 0.000704518903168 -0.000704518903168 0.000704518903168
1 10.8082760323 5.40553469842 10.81142565 -172.388263338 53.4613354678 142.573502995 0.000704518903168 -0.000704518903168 0.000704518903168
1 10.8114836897 8.10729549608 13.5139526984 148.377480371 -20.4418858705 145.278349386 0.000704518903168 0.000704518903168 0.000704518903168
1 13.5114605478 8.10951551981 10.8096448547 -103.936716394 201.560486467 -35.5060254342 0.000704518903168 0.000704518903168 0.000704518903168
1 13.5116294745 5.40724729288 13.5148805981 -87.0440460135 224.72078049 238.068317911 0.000704518903168 -0.000704518903168 0.000704518903168
1 10.8083393601 10.808549952 16.2139470099 -166.055486289 -144.996287931 -105.307515259 0.000704518903168 0.000704518903168 -0.000704518903168
1 10.8114404714 13.5126346522 2.70152186433 144.055644026 13.4737277426 -97.8220729756 0.000704518903168 0.000704518903168 -0.000704518903168
1 13.5109510956 13.513127555 0.00155573223342 -154.881931228 62.7640057438 155.564715972 0.000704518903168 0.000704518903168 -0.000704518903168
1 13.5125319738 10.8100429257 2.70296776197 3.20588790222 4.30107606742 46.767690508 0.000704518903168 0.000704518903168 -0.000704518903168
1 10.8105366546 10.8114100732 5.40577627179 53.673964377 141.01582874 77.6186720042 0.000704518903168 0.000704518903168 -0.000704518903168
1 10.814811516 13.5109055909 8.10530429921 481.160099722 -159.432401379 -219.561570772 0.000704518903168 0.000704518903168 0.000704518903168
1 13.5134720684 13.5096444794 5.40338201 97.2153480991 -285.543547966 -161.807505129 0.000704518903168 0.000704518903168 -0.000704518903168
1 13.5137894261 10.8104561302 8.10969238799 128.951120101 45.6215267744 219.247303906 0.000704518903168 0.000704518903168 0.000704518903168
1 10.8126158038 10.8075549728 10.8087454213 261.588889309 -244.494210114 -125.449362795 0.000704518903168 0.000704518903168 0.000704518903168
1 10.8097334527 13.5129244942 13.5126057368 -26.6462279427 42.4579238998 10.5821859536 0.000704518903168 0.000704518903168 0.000704518903168
1 13.5142077218 13.5113942175 10.8112731611 170.780682314 -110.569739301 127.324612081 0.000704518903168 0.000704518903168 0.000704518903168
1 13.5128947385 10.8098619263 13.5111291408 39.482361024 -13.7988639354 -137.077408048 0.000704518903168 0.000704518903168 0.000704518903168
108
Atom. timestep:0.997765006386
1 16.0767162746 16.1764139693 0.038664448652 -127.707086677 -47.9136999012 9.88833942403 0.0111907543595 -0.0142884884779 -0.0336363502715
1 15.9579780604 2.48935474679 2.56945797464 -228.116646189 -184.906231686 -92.8703400895 0.034601830326 0.0333765283182 0.0477589201092
1 2.76250533298 2.80483548264 0.235436799007 -19.6694043492 71.9794331186 157.667473994 -0.115395194037 -0.0371992507682 -0.107963974619
1 2.62995799336 0.053692920306 2.63259398421 -67.290746431 43.7486044819 -61.1092205385 0.00489080096698 -0.011839707366 0.0095261200111
1 16.1275729846 16.0106741908 5.48364027395 -84.839964791 -122.740859174 30.0633424997 0.00113374132666 0.110288804056 -0.0778968021598
1 0.00154930911352 2.96992793302 7.99986445148 -18.9566704161 155.731122531 -67.9197596948 -0.0217399998153 -0.147417608397 0.0609350331049
1 2.64942546857 2.88864051238 5.30374854359 -34.24476099 125.543344916 -99.7424286312 0.0302097927556 -0.0775162644443 0.000304676090364
1 2.82502379763 0.130599907527 8.19767585645 108.33595593 111.646531029 70.6630582437 -0.0137371953988 -0.0274843624876 -0.0261809981043
1 16.16745606 0.125724253825 10.861457368 -71.2925212983 87.9093087839 39.4174923217 -0.0363436453131 -0.0534221065929 -0.0121017181895
1 0.128169545668 2.76080474984 13.4601141804 92.4885638231 51.4109998442 -32.6705054756 -0.04260549 -0.00867369632463 0.0248131382962
1 2.38020554109 2.52500018528 10.6838720426 -250.25342751 -118.705336087 -108.184877953 0.0883404332939 0.0788221808373 0.0236486811283
1 2.76531584433 0.183871219555 13.5868834826 27.8333753254 129.77785434 69.3559772046 -0.050018730196 -0.0684680352708 -0.00334054418444
1 16.0215508684 5.15348588359 0.167381435857 -156.162624045 -200.487220883 158.483817542 0.0436592484574 0.0607905823843 -0.0091682108041
1 0.142036154251 7.97646790575 2.83760693641 127.229649715 -127.22836371 118.718560119 -0.0175658363806 0.00383794444496 -0.0183651934677
1 3.02626657188 8.11845008855 0.0739367242692 258.471338924 -5.85113803481 54.5983806271 -0.0772341126755 -0.0192662808899 -0.027090562951
1 2.87884394933 5.40197087481 2.68155172839 106.46867199 -5.09158216588 -29.7460386831 -0.0856956485874 -0.00111887449343 -0.0117274819286
1 0.075300355247 5.12655556 5.45036724421 43.670118647 -195.614796309 -41.3798377864 -0.0404282914793 0.111727122979 -0.121691708096
1 16.2089705633 8.19912816589 8.41006469466 -19.5583834344 78.4690275434 239.284024514 -0.0214068083854 -0.0155979299825 -0.0753493319466
1 2.78385971152 7.88279686213 5.36244307964 53.9575115249 -180.883476923 -17.8285961942 -0.0375041601876 0.0570568922351 0.0284502658698
1 2.57080779826 5.35465331161 8.07158600291 -95.8571898981 -27.5450155887 -11.2524102728 0.0442259239761 0.0297172048824 0.028826486952
1 16.2062620858 5.3849435535 10.8039821259 -25.6159469282 -20.0244831484 2.41583952395 -0.0186631513632 -0.00159949871242 0.00822699806984
1 0.0159562360333 7.96291199764 13.4199764458 13.7550395816 -135.195656146 -83.3461334986 -0.00250247638465 0.010139668402 0.0078682704727
1 2.54677288236 8.16636709619 10.7418564855 -147.738674281 57.6042164343 -23.2251627325 0.00898575674325 0.000791792213726 0.0619669155834
1 2.63512707703 5.31724416685 13.6127817947 -55.6869807916 -72.3177718322 92.3486877749 0.0155021808505 0.0193164836695 -0.00737764643438
1 16.0614931639 10.5051612897 15.9988006916 -133.494611319 -275.801809158 -178.544919981 0.0226736090056 0.0311391272783 0.0406205989744
1 0.106348835578 13.5247377792 2.70394871847 100.803080635 -0.800254493682 -9.10730571027 -0.00499059048295 -0.0140749284559 -0.0109106964416
1 2.64806166459 13.5114957026 16.1105324627 -58.6117623337 -1.9882906732 -104.515138663 -0.00365599907715 4.62301444589e-05 -0.000412878592265
1 2.883902951 10.7331882736 2.81779497981 136.50787517 -85.3932600298 114.897211373 -0.0533126655063 -0.0167838014963 0.00288320719077
1 0.0122837704839 10.8358052536 5.36983036786 24.0456159177 6.33538567559 -32.0902604571 0.0139803083964 -0.024074401462 0.00145397412591
1 16.0981119226 13.7326378259 7.89193083127 -92.6473608331 155.738872778 -146.593467679 0.0274844052554 -0.0935098398166 0.0991069330946
1 2.83311173723 13.7780146883 5.41179684465 126.570262551 234.129206338 11.079721591 -0.00366550955725 -0.0335677350778 0.00524142021122
1 2.68299009504 10.7374507655 7.83166160583 -15.5153347957 -57.1545343296 -254.909533678 0.00615233234143 0.0146303644372 0.0239552560711
1 16.1407462797 10.9953506978 10.7319849276 -32.6997759958 139.834511911 -63.8477475857 0.0531528907296 -0.0595715989704 0.0198867562989
1 15.9272430303 13.3894042033 13.4163498421 -216.912992608 -88.979005967 -36.2749187693 0.0916705733772 0.0418191538891 0.0837433968071
1 2.56698868202 13.3279708745 10.6829939737 -117.770801282 -150.405400039 -119.440349816 0.0222691643317 0.0408015532494 0.00549822453931
1 2.7342799075 10.6856285638 13.6871922667 18.3955170367 -101.776992827 146.636897648 -0.0162619261251 0.0261450741206 -0.0305716063038
1 5.44613662492 16.2140108216 16.1596457684 46.7143203218 -16.0210008889 -50.4612761079 0.00674249530734 -0.0169714656989 0.00517431652276
1 5.21870800598 2.69610468359 2.45312050306 -110.155202797 -29.5297807454 -152.591876197 0.105211891787 -0.0332786358405 0.129543080291
1 8.20361541423 2.60325680432 0.39823738299 58.2028017165 -85.1660317709 312.473640038 -0.0593684602848 0.0139405470298 -0.107490697451
1 8.12717094338 16.0849103026 2.7508576447 12.1745411526 -131.606938941 47.3395825102 -0.00788786024928 -0.00353984505138 -0.00270849681988
1 5.28689678035 0.279955867443 5.49652732607 -92.0907958012 273.035240958 79.0441846036 0.0304484903603 -0.00289163893417 -0.0130550328238
1 5.52930656816 2.95283553227 8.28360710727 100.847961719 221.65544763 156.103360665 -0.02972788986 -0.0342568068296 -0.0205962531921
1 8.35027315093 2.50604727148 5.35507391311 204.873459146 -177.175254215 -36.5765515404 -0.0409902694333 0.0200737263554 0.0178812953534
1 8.26343024036 0.0123292438188 8.24811118278 147.657525312 34.9215270407 99.0011865767 -0.0119234583522 0.0317689804895 -0.0518151381381
1 5.59723509307 0.018640887717 10.7637416612 161.039048569 13.4629591023 -39.9663378997 -0.0333576027929 -0.00562626655414 0.00685393950725
1 5.20747241029 2.55966754793 13.4495178641 -156.312239449 -106.29279606 -59.6698829438 0.0546039759532 0.0521872077527 0.000990321750798
1 8.11349790726 2.701221096 10.8996025407 17.7374426346 4.27526873994 89.0496898383 0.0139959310893 0.0061410592423 0.000749021195683
1 8.23754129612 16.1145203082 13.4265841077 118.173340189 -66.1351912067 -56.1646432753 -0.0135500614606 0.040141696708 0.0348756491268
1 5.31511596824 5.23469777882 0.0241611684245 -53.7290752802 -140.369490482 -2.13198710254 0.0435382396153 0.0384311941837 -0.0330133035195
1 5.32491456894 7.90648104225 2.65517530186 -21.6427546833 -160.762232182 -28.2077497308 0.0755262792793 0.0493392323557 0.0271699026113
1 8.04964149167 7.95932907279 16.0830464826 -71.3956376767 -125.148119203 -108.720943392 -0.0168877578322 0.0271854359137 0.0252731767395
1 8.06753954883 5.41374041478 2.86659241953 -53.260816668 21.3484651585 156.435125853 -0.0159433635247 0.0142669236896 -0.00791854139597
1 5.21278875013 5.44277238486 5.32618997974 -127.05514346 10.1873670615 -45.6916646845 0.0831448706617 -0.0395875708959 0.0420212380495
1 5.26841125174 8.01606479077 8.60602433488 -124.218894924 -92.3559015661 403.516015756 0.0174355512339 0.00145132023838 -0.114510734183
1 8.09214292683 8.421146775 5.47709507661 -2.51721018803 264.212427166 67.5347130045 0.020760391356 -0.0581193659763 -0.00678131328742
1 8.09043276054 5.38523719223 7.8878994728 -6.11140941682 -2.22334966547 -208.254459189 0.0157324573854 0.0220644433478 0.00797667323667
1 5.44294764993 5.45410258517 10.9506087419 18.9775499231 21.1173415592 144.602301269 -0.0202924936563 -0.0373178858363 0.0109538802492
1 5.29187538879 8.16689107774 13.3932293185 -109.587561405 51.8771664846 -97.3233370217 0.00260473244928 -0.00939283643559 0.0255291940774
1 7.91459483042 8.37378577003 10.9754826282 -139.862999094 212.919865432 176.12708352 0.0642210349469 -0.0635268798531 0.0172831905716
1 7.84458430343 5.33645989125 13.6399143546 -228.891270405 -80.579251691 122.418172554 0.0378758326063 -0.0166086607577 -0.00730201359767
1 5.39957044439 10.7961302101 0.130639378371 17.9869011015 -18.0396009358 92.3435024032 0.0287114765225 -0.00724813761281 -0.0477597514972
1 5.2736912488 13.2823701001 2.6022405136 -115.70492034 -155.074819147 -80.8106646334 0.0152933026736 0.0940594508267 0.0228684296036
1 8.2560616592 13.5262670527 16.1740041151 129.188430313 18.6374250398 -30.8610009597 -0.0213051720542 0.00593757382612 0.0121135125827
1 7.97631767216 10.9949596785 2.77941665424 -93.4815654122 162.160021355 68.1986421598 0.0465317345581 -0.0238195603393 -0.00865385767028
1 5.49522688894 10.7980296883 5.45159240349 69.0902658856 -0.846896600221 55.3315030649 -0.0278763062588 0.0182860156574 0.0100920887365
1 5.6144313407 13.6010339399 8.0833788953 187.8134356 83.2009891986 -19.6207742044 -0.0224855270648 -0.00510737301172 0.00432271405938
1 8.30292267703 13.7785856975 5.5235804274 183.778314982 238.558522093 113.576451982 -0.00921352391333 -0.0314213431474 -0.00339096229559
1 7.92852732985 10.667599274 8.32598423342 -141.831182856 -106.975671146 193.181827967 0.0395511077039 0.0418944671327 -0.0314713878774
1 5.29259529062 10.8430602359 10.7713322469 -127.337600252 63.4733923996 -19.8325900507 -0.0216700045086 0.0366365700891 0.0232575662341
1 5.54310193813 13.4911970318 13.4215607457 114.969503094 -12.5386908974 -86.4369993758 -0.0261131542217 0.012268897179 0.00494890498357
1 8.39790750675 13.7681774141 10.769020916 248.798737172 162.907835671 -50.2332121145 -0.059903181383 -0.121021424961 -0.00930116414524
1 8.08000740076 10.9269703211 13.4974934732 -21.6923963092 107.201684719 -18.4943967196 0.00697029182765 -0.00947240722318 -0.00137116946395
1 10.9055912451 0.069721800766 0.0634025441485 86.8557519855 69.6045989822 55.6477301353 -0.0104968846356 0.000502593905358 -0.00862550257953
1 10.6627063195 2.88061980629 2.65724192936 -83.8058806385 147.778228648 -31.796095645 0.089752109747 -0.0327165474961 0.0275540621948
1 13.5836365558 2.67817305504 15.9693880318 35.3642513267 -37.6760408313 -225.658761784 -0.0431648783785 -0.0201584892287 0.0178194514255
1 13.4316116839 0.0527721348217 2.80235408033 -74.2306532866 23.3613627651 66.9754234683 0.00668318398406 -0.0427605700869 -0.0438614749866
1 11.0390023293 0.0773769998512 5.40515956776 167.886667595 8.33234076173 11.3656114489 -0.0892700042881 -0.102672823814 0.0189227704516
1 10.8365403035 2.69699294623 8.14000777321 18.6103425497 11.7487102116 26.0195295955 -0.0107540882003 0.0191660462214 -0.00991454932965
1 13.2513246679 2.5322995756 5.28508310073 -187.526139259 -96.1930379116 -94.362910534 0.101019309209 0.111761708779 0.0313789017816
1 13.4781223732 16.1835173856 8.23131609238 -17.6726762971 -6.61451265437 113.137205175 0.0201492636001 0.0328712978884 -0.0121951592288
1 10.8559422105 16.0825527635 10.6784053175 81.1956442577 -95.3685359743 -115.625925529 0.0546197324445 0.0542544624889 0.0209118501275
1 10.8664382542 2.59739509067 13.4931987477 21.986512419 -83.1658857223 0.389323297182 -0.0424067124767 0.0235579174239 0.0236897462421
1 13.1860845115 2.87654578964 10.8309643139 -270.38415487 171.443755681 14.1884347986 0.0653129926305 -0.0017901432641 -0.0083272386707
1 13.4021953031 0.0109288005317 13.290639366 -93.0088970277 8.11937528694 -195.073794422 0.0198327793941 -0.00352180258305 0.0299679996169
1 10.8479581524 5.61888561879 0.134035819681 7.66170449669 165.786108394 115.521098136 -0.038498669461 -0.0561840101026 -0.0203376808254
1 10.865996155 8.09925510767 2.77061863691 10.4386484139 25.6489978121 65.2901926433 -0.0548779290026 0.0412988332577 -0.00229463528512
1 13.4198546766 8.06990403514 0.214986971829 -62.9722509466 -19.5948341417 201.806451355 0.034988461547 0.0222622820552 -0.0125763695858
1 13.3179874676 5.4230333533 2.75073785087 -137.492899497 -3.7901138382 41.4084650733 0.0720202902614 -0.0256743995844 -0.0114261254993
1 10.8799353687 5.42662445084 5.2305351038 41.029862452 20.2158022823 -119.005361922 -0.0373455700708 -0.00237363583125 0.070925043024
1 10.9405493499 7.83129348499 8.32211185333 104.344597248 -255.24706548 163.593206747 -0.0299957300415 0.0198408495429 -0.0619734796654
1 13.3954708323 8.11104941315 5.31452725746 -85.7996358633 16.4997959453 -63.4844554731 0.0350203130946 0.0160330401578 0.031008115691
1 13.7532599103 5.41363695625 7.85470725663 185.947604709 21.6554085718 -221.472771477 -0.0695632136434 0.0220409252912 0.03516154685
1 10.6346511473 5.46066169807 10.9556392349 -178.788341405 56.5998157613 151.913955607 -0.00901562795758 0.000126518474429 0.0140611213658
1 10.9425642478 8.09202642955 13.646721427 96.4865377999 -2.35930954088 105.941996987 -0.0428881392889 0.0185492078275 -0.0343889280469
1 13.4329990382 8.27563396938 10.785508136 -14.8938304675 84.4962830727 3.14330678169 0.0921769608734 -0.112088908863 0.0373246727007
1 13.4324656906 5.617123528 13.7350697647 -61.8952928664 177.261103311 185.617346329 0.0237854726692 -0.0434206383348 -0.040257037688
1 10.6511384227 10.670710816 16.1194811355 -140.121159923 -122.279676445 -71.5777646822 0.0196962112575 0.0203219120823 0.0293948643181
1 10.9405915598 13.5225388629 2.61581759647 94.7754864823 2.75934593975 -57.0607491733 -0.0474295090208 -0.00899686501355 0.0404506245446
1 13.3694714801 13.5676429491 0.141384360665 -110.073146544 38.6109205671 105.200193617 0.0437496942714 -0.0188819533069 -0.0465847043599
1 13.518864094 10.8068908249 2.73759549098 11.8059909037 -20.8752090937 7.73433563063 0.00595582210152 -0.0249670630557 -0.0361158198703
1 10.8561666427 10.9344910409 5.47866541599 28.4820559713 83.9020710441 56.1995767997 -0.0225867774519 -0.0516576382346 -0.0278227003124
1 11.2691703582 13.3648484379 7.90672480936 399.678113175 -109.995838414 -152.168061425 -0.0683567103692 0.0543456798415 0.061404723872
1 13.6090556247 13.2458655418 5.24387631527 93.8805028871 -216.691999223 -155.001837177 -0.000418925923203 0.0621439031731 0.00599091830211