108
Atom. timestep:0
1 15.7434507488 0.000243386460071 0.0295448770604 -73.6124529239 -0.0271780343987 58.5758027913 -0.000851333788447 -0.000851333788447 -0.000851333788447
1 15.777920435 2.6105791151 2.63782082793 -4.67308096962 -39.3557205 15.1277047993 -0.000851333788447 -0.000851333788447 -0.000851333788447
1 2.58765387467 2.64536018063 15.752863102 -85.2062010606 30.2064101152 -54.7877465697 -0.000851333788447 -0.000851333788447 -0.000851333788447
1 2.67560050944 0.00551398432357 2.64712183858 90.6870673384 10.5140176251 33.7297259825 -0.000851333788447 -0.000851333788447 -0.000851333788447
1 0.0107650887897 15.7716039404 5.26267076201 21.0162264902 -17.3060700031 5.85547494649 -0.000851333788447 -0.000851333788447 0.000851333788447
1 0.00426939068102 2.66232774552 7.89671116458 8.02483035598 64.1415396693 13.9362800256 -0.000851333788447 -0.000851333788447 0.000851333788447
1 2.65290940111 2.63824514864 5.26182612196 45.3048509664 15.9763462325 4.16619484174 -0.000851333788447 -0.000851333788447 0.000851333788447
1 2.65444467547 0.0537304308163 7.90227521545 48.3753996825 106.946909993 25.0643817001 -0.000851333788447 -0.000851333788447 0.000851333788447
1 15.7585202057 0.0274288329195 10.519934854 -43.4735391835 54.3437145366 0.383659034601 -0.000851333788447 -0.000851333788447 0.000851333788447
1 15.7566257531 2.60308859894 13.1131509695 -47.262444449 -54.3367527213 -74.2120115154 -0.000851333788447 -0.000851333788447 -0.000851333788446
1 2.63754924302 2.60040636808 10.5887717227 14.584534999 -59.7012144193 138.057395419 -0.000851333788447 -0.000851333788447 0.000851333788447
1 2.61131288361 15.764602972 13.1356918947 -37.8881834869 -31.3080067773 -29.1301614251 -0.000851333788447 -0.000851333788447 -0.000851333788446
1 15.7721210363 5.28122386778 0.0152892663954 -16.2718782355 42.9616862389 30.0645816437 -0.000851333788447 0.000851333788447 -0.000851333788447
1 15.7799816082 7.90115248129 2.60254279069 -0.550734457603 22.818913382 -55.428369221 -0.000851333788447 0.000851333788447 -0.000851333788447
1 2.65739563364 7.88694975589 15.7739543928 54.2773159742 -5.58653722168 -12.6051652189 -0.000851333788447 0.000851333788447 -0.000851333788447
1 2.62119091187 5.24103258049 2.59223427611 -18.1321270911 -37.4208878338 -76.045398249 -0.000851333788447 0.000851333788447 -0.000851333788447
1 15.7677504923 5.2923992708 5.20508335307 -25.0129661621 65.312492136 -109.319342199 -0.000851333788447 0.000851333788447 0.000851333788447
1 15.7557298433 7.89155821885 7.86808096546 -49.0542641157 3.6303886324 -43.3241178529 -0.000851333788447 0.000851333788447 0.000851333788447
1 2.62322600394 7.89053947164 5.26326636577 -14.0619429858 1.59289421687 7.0466824585 -0.000851333788447 0.000851333788447 0.000851333788447
1 2.62409403049 5.23002160513 7.92149241367 -12.3258898903 -59.4428384002 63.4987778836 -0.000851333788447 0.000851333788447 0.000851333788447
1 15.7566969006 5.28772397999 10.4868010732 -47.1201493869 55.961910583 -65.8839022573 -0.000851333788447 0.000851333788447 0.000851333788447
1 15.7551068616 7.89919450383 13.1747221127 -50.3002274695 18.9029584949 48.9302741478 -0.000851333788447 0.000851333788447 -0.000851333788446
1 2.57383310382 7.90007940708 10.4782816321 -112.847742583 20.6727649813 -82.9227843867 -0.000851333788447 0.000851333788447 0.000851333788447
1 2.60794793012 5.26450381872 13.1174360286 -44.6180904312 9.52158833958 -65.6418932466 -0.000851333788447 0.000851333788447 -0.000851333788446
1 15.7573146927 10.5102750167 0.0173525799711 -45.884565267 -18.9360155278 34.1912087687 -0.000851333788447 0.000851333788447 -0.000851333788447
1 0.0321645585254 13.1421027292 2.60272916029 63.8151656876 -16.3084924638 -55.0556300126 -0.000851333788447 -0.000851333788446 -0.000851333788447
1 2.64345354429 13.1851223765 15.7680535285 26.3931374538 69.7308016189 -24.406893776 -0.000851333788447 -0.000851333788446 -0.000851333788447
1 2.6296233921 10.4645596052 2.60138170601 -1.26716674957 -110.366838006 -57.7505385552 -0.000851333788447 0.000851333788447 -0.000851333788447
1 0.000220854536884 10.5488194572 5.26001893423 -0.0722418804844 58.1528650766 0.551819419333 -0.000851333788447 0.000851333788447 0.000851333788447
1 0.0223197356558 13.1286469903 7.88385990843 44.1255200744 -43.2199700571 -11.7662321078 -0.000851333788447 -0.000851333788446 0.000851333788447
1 2.58857131495 13.1413965615 5.25815015257 -83.3713205186 -17.7208279014 -3.18574389143 -0.000851333788447 -0.000851333788446 0.000851333788447
1 2.64277144838 10.5548877027 7.91237736858 25.0289456375 70.2893558248 45.2686878238 -0.000851333788447 0.000851333788447 0.000851333788447
1 0.015234160263 10.558581606 10.5289114999 29.9543693796 77.6771623785 18.3369505803 -0.000851333788447 0.000851333788447 0.000851333788447
1 0.000941866021249 13.1671225917 13.144202919 1.36978107902 33.7312321326 -12.1081128625 -0.000851333788447 -0.000851333788446 -0.000851333788446
1 2.61028440577 13.1427312816 10.5214101437 -39.9451391582 -15.051387575 3.33423825137 -0.000851333788447 -0.000851333788446 0.000851333788447
1 2.65841104238 10.4867692521 13.1355976024 56.3081334442 -65.9475443802 -29.318746042 -0.000851333788447 0.000851333788447 -0.000851333788446
1 5.27830550031 15.779119544 15.7558067061 37.124951331 -2.27486291092 -48.9005385352 0.000851333788447 -0.000851333788447 -0.000851333788447
1 5.26098766767 2.6472352187 2.62385681157 2.48928627065 33.9564862208 -12.8003277283 0.000851333788447 -0.000851333788447 -0.000851333788447
1 7.89687130102 2.62615912402 15.7629117722 14.2565528968 -8.19570285497 -34.6904063833 0.000851333788447 -0.000851333788447 -0.000851333788447
1 7.85550099664 0.0276301628123 2.61535587941 -68.484055321 54.7463743194 -29.8021919418 0.000851333788447 -0.000851333788447 -0.000851333788447
1 5.27486949363 0.0292226403639 5.26154797828 30.2529380279 57.9313294024 3.60990749573 0.000851333788447 -0.000851333788447 0.000851333788447
1 5.2720133916 2.65675244583 7.8900460529 24.5407339878 52.9909403736 0.606056755225 0.000851333788447 -0.000851333788447 0.000851333788447
1 7.87015804567 2.64344280244 5.24551834257 -39.1699574493 26.3716537664 -28.4493637231 0.000851333788447 -0.000851333788447 0.000851333788447
1 7.88057129704 0.00851833460319 7.8943429777 -18.3434548573 16.5227181459 9.1999062867 0.000851333788447 -0.000851333788447 0.000851333788447
1 5.2640032469 0.020102927696 10.5046963424 8.52044470384 39.6919041832 -30.0933640037 0.000851333788447 -0.000851333788447 0.000851333788447
1 5.26760338668 2.61979605384 13.1564721198 15.7207242142 -20.9218431452 12.4302885859 0.000851333788447 -0.000851333788447 -0.000851333788446
1 7.89014947653 2.65445436385 10.5216011935 0.812904009036 48.3947764381 3.71633798872 0.000851333788447 -0.000851333788447 0.000851333788447
1 7.90437662145 0.0254277448926 13.1645212042 29.2671936621 50.3415385084 28.5284572635 0.000851333788447 -0.000851333788447 -0.000851333788446
1 5.24196474497 5.26683896689 15.7544423541 -35.5565588773 14.1918846518 -51.6292424379 0.000851333788447 0.000851333788447 -0.000851333788447
1 5.26322036961 7.9062582252 2.63339971136 6.95469013156 33.0304011509 6.28547173392 0.000851333788447 0.000851333788447 -0.000851333788447
1 7.87586552094 7.88770990453 0.0102094884421 -27.7550069824 -4.06623995278 19.9050258021 0.000851333788447 0.000851333788447 -0.000851333788447
1 7.8761597205 5.28164241507 2.63339225449 -27.1666078627 43.7987808234 6.27055797569 0.000851333788447 0.000851333788447 -0.000851333788447
1 5.29106353578 5.23126285197 5.25573884684 62.6410221114 -56.9603447504 -8.00835531959 0.000851333788447 0.000851333788447 0.000851333788447
1 5.22826657268 7.89480476169 7.91121295768 -62.9529032769 10.1234742772 42.9398660381 0.000851333788447 0.000851333788447 0.000851333788447
1 7.83957524015 7.88391426564 5.2880778205 -100.33556811 -11.6575176848 56.6695916013 0.000851333788447 0.000851333788447 0.000851333788447
1 7.88059830508 5.28268304446 7.87548552755 -18.2894387771 45.8800395757 -28.5149937661 0.000851333788447 0.000851333788447 0.000851333788447
1 5.27799546611 5.31776306242 10.5077814714 36.5048829434 116.040075062 -23.9231059962 0.000851333788447 0.000851333788447 0.000851333788447
1 5.2671742476 7.85971074658 13.1482910723 14.8624460574 -60.0645554981 -3.93180623512 0.000851333788447 0.000851333788447 -0.000851333788446
1 7.91911878138 7.89362971138 10.5094954071 58.7515133357 7.77337365892 -20.4952347347 0.000851333788447 0.000851333788447 0.000851333788447
1 7.88193426222 5.25519236408 13.1606371958 -15.6175245063 -9.10132083188 20.7604404134 0.000851333788447 0.000851333788447 -0.000851333788446
1 5.2303932333 10.5263972813 15.7734509892 -58.699582068 13.3085135095 -13.6119724566 0.000851333788447 0.000851333788447 -0.000851333788447
1 5.25610136293 13.1568513796 2.59506461635 -7.2833231419 13.1888081943 -70.3847178 0.000851333788447 -0.000851333788446 -0.000851333788447
1 7.88170376551 13.1224424427 15.7720692142 -16.0785179216 -55.6290651563 -16.3755224615 0.000851333788447 -0.000851333788446 -0.000851333788447
1 7.89969039325 10.5745166081 2.64364932512 19.8947373277 109.547166395 26.7846991119 0.000851333788447 0.000851333788447 -0.000851333788447
1 5.270006238 10.5473563978 5.23775767008 20.526426818 55.2267461333 -43.9707086081 0.000851333788447 0.000851333788447 0.000851333788447
1 5.23925154679 13.1435475763 7.8567086312 -40.9829552105 -13.4187982549 -66.0687862279 0.000851333788447 -0.000851333788446 0.000851333788447
1 7.87734071906 13.1954474102 5.25254747358 -24.8046107697 90.3808689179 -14.3911017859 0.000851333788447 -0.000851333788446 0.000851333788447
1 7.93549766451 10.5169822836 7.89878699051 91.5092793985 -5.52148179867 18.087931866 0.000851333788447 0.000851333788447 0.000851333788447
1 5.27458554711 10.4795496213 10.5392761644 29.685044977 -80.3868059945 39.0662794822 0.000851333788447 0.000851333788447 0.000851333788447
1 5.28629396267 13.1459792634 13.1362412901 53.1018759553 -8.55542403505 -28.0313706445 0.000851333788447 -0.000851333788446 -0.000851333788446
1 7.88948928427 13.1637489265 10.4931287903 -0.507480496715 26.9839019688 -53.2284680992 0.000851333788447 -0.000851333788446 0.000851333788447
1 7.85892516678 10.5388384803 13.1227192474 -61.635715087 38.1909112634 -55.0754558745 0.000851333788447 0.000851333788447 -0.000851333788446
1 10.5254673315 15.7456547835 0.0292501936633 11.4486139216 -69.2043835223 57.9864360009 0.000851333788447 -0.000851333788447 -0.000851333788447
1 10.5214690744 2.61551154444 2.6364242748 3.45209964427 -29.4908618822 12.3345985646 0.000851333788447 -0.000851333788447 -0.000851333788447
1 13.1959326427 2.66526503575 15.7636032516 91.3513337647 70.0161200971 -33.3074475382 -0.000851333788446 -0.000851333788447 -0.000851333788447
1 13.1717052409 0.0241013747418 2.67244408863 42.8965305396 47.6887982236 84.3742257595 -0.000851333788446 -0.000851333788447 -0.000851333788447
1 10.5423911497 15.7586622724 5.23440643475 45.2962499689 -43.1894059272 -50.673179228 0.000851333788447 -0.000851333788447 0.000851333788447
1 10.5221820683 2.63767968581 7.90646533511 4.87808746883 14.8454205735 33.4446209704 0.000851333788447 -0.000851333788447 0.000851333788447
1 13.1470914553 2.60571276528 5.2925672104 -6.33104036289 -49.0884200717 65.648371339 -0.000851333788446 -0.000851333788447 0.000851333788447
1 13.1695716855 0.0122935658853 7.90644889772 38.6294198977 24.0731806619 33.4117461857 -0.000851333788446 -0.000851333788447 0.000851333788447
1 10.5400144828 0.025174194267 10.51573409 40.5429162328 49.8344372603 -8.01786902617 0.000851333788447 -0.000851333788447 0.000851333788447
1 10.5033724312 2.62832588188 13.1344777492 -32.7411863802 -3.86218716125 -31.5584522771 0.000851333788447 -0.000851333788447 -0.000851333788446
1 13.1519306283 2.63806997948 10.5214197202 3.34730556094 15.6260078973 3.35339126319 -0.000851333788446 -0.000851333788447 0.000851333788447
1 13.1458491025 15.7708796169 13.1672735135 -8.81574592154 -18.7547170494 34.0330757356 -0.000851333788446 -0.000851333788447 -0.000851333788446
1 10.4865422764 5.23857006049 0.0189819002557 -66.4014957486 -42.3459277892 37.4498493171 0.000851333788447 0.000851333788447 -0.000851333788447
1 10.5321591706 7.86684146621 2.63833215504 24.8322920646 -45.8031163327 16.1503590243 0.000851333788447 0.000851333788447 -0.000851333788447
1 13.1708022614 7.90030382204 15.7701701914 41.0905715047 21.1215949037 -20.1735679407 -0.000851333788446 0.000851333788447 -0.000851333788447
1 13.1453291155 5.27754563948 2.60886598299 -9.85571983325 35.6052296904 -42.7819847024 -0.000851333788446 0.000851333788447 -0.000851333788447
1 10.5306220561 5.26646901363 5.28711319042 21.7580630732 13.4519781367 54.7403314427 0.000851333788447 0.000851333788447 0.000851333788447
1 10.517790499 7.87486322576 7.91355865198 -3.90505099623 -29.7595973401 47.6312546171 0.000851333788447 0.000851333788447 0.000851333788447
1 13.1020302901 7.88762590315 5.25955490206 -96.4533700985 -4.23424271677 -0.376244929211 -0.000851333788446 0.000851333788447 0.000851333788447
1 13.1322287497 5.23205918998 7.86110098257 -36.0564514227 -55.3676687401 -57.2840835445 -0.000851333788446 0.000851333788447 0.000851333788447
1 10.5274921019 5.26591817084 10.527386598 15.4981547167 12.3502925481 15.2871467642 0.000851333788447 0.000851333788447 0.000851333788447
1 10.515329959 7.87432923104 13.1226545309 -8.82613093962 -30.8275867774 -55.2048887959 0.000851333788447 0.000851333788447 -0.000851333788446
1 13.1430618168 7.91642490529 10.4897131345 -14.3903172903 53.3637611837 -60.0597795739 -0.000851333788446 0.000851333788447 0.000851333788447
1 13.1060413209 5.24333830062 13.122150632 -88.4313085573 -32.8094475864 -56.2126865321 -0.000851333788446 0.000851333788447 -0.000851333788446
1 10.5400994448 10.4984632285 15.7639366338 40.7128402917 -42.5595918638 -32.6406831011 0.000851333788447 0.000851333788447 -0.000851333788447
1 10.5597260117 13.1472783507 2.67782362732 79.9659739222 -5.95724956134 95.1333030799 0.000851333788447 -0.000851333788446 -0.000851333788447
1 13.1742959138 13.1426806209 15.7414783178 48.0778763626 -15.1527090494 -77.55731495 -0.000851333788446 -0.000851333788446 -0.000851333788447
1 13.168294129 10.5744593424 2.6274458513 36.0743067704 109.432635132 -5.62224832667 -0.000851333788446 0.000851333788447 -0.000851333788447
1 10.5160223038 10.5484850559 5.27097554862 -7.44144134472 57.4840624195 22.4650480501 0.000851333788447 0.000851333788447 0.000851333788447
1 10.5226364969 13.1343192038 7.86609736678 5.78694478193 -31.8755432068 -47.2913151925 0.000851333788447 -0.000851333788446 0.000851333788447
1 13.1387715262 13.147708921 5.26283530849 -22.970898501 -5.09610886339 6.18456790418 -0.000851333788446 -0.000851333788446 0.000851333788447
1 13.1146097946 10.5387441843 7.88304782429 -71.294361236 38.0023193037 -13.3904003731 -0.000851333788446 0.000851333788447 0.000851333788447
1 10.5667700556 10.4772276111 10.5252129648 94.0540615503 -85.0308263808 10.939880535 0.000851333788447 0.000851333788447 0.000851333788447
1 10.5206042175 13.1535118488 13.1360794196 1.72238587875 6.50974667903 -28.3551115546 0.000851333788447 -0.000851333788446 -0.000851333788446
1 13.1870843785 13.1404165415 10.5240574575 73.6548055686 -19.6808678656 8.62886597413 -0.000851333788446 -0.000851333788446 0.000851333788447
1 13.1344563318 10.5438989884 13.1279777644 -31.6012872184 48.3119274428 -44.5584218142 -0.000851333788446 0.000851333788447 -0.000851333788446
108
Atom. timestep:9.97765006386
1 0.0436084626831 0.243704986557 0.0608437268405 -175.83478323 160.742578256 82.9267926424 -0.0935877615133 -0.051687364383 -0.0147356047803
1 0.125359464411 2.52625464288 2.66364235923 -126.728025213 128.456580261 -133.478289972 -0.0798845689546 0.0678571630605 -0.0626245691794
1 2.43158203798 2.4677345551 15.6341061721 -141.008195419 20.7517216326 -83.621473812 0.0760771273499 0.135701384566 0.0653820509081
1 2.75596286396 0.085747860217 2.72878525871 54.4137096846 56.8921159132 112.254686366 -0.0115879201649 -0.0211658569858 -0.0155171977334
1 15.6438404263 2.62061304297e-05 5.22984642275 58.2589392913 19.1568877518 79.7503989553 0.0239141395623 0.042635141887 -0.0124045029753
1 0.00917268894246 2.86061594213 7.66595496122 15.1836590018 104.946426836 2.88315032403 -0.016422585995 -0.00938253960163 0.0380035822071
1 2.58141852297 2.51469570562 5.16271751189 136.036630292 -47.5612653518 50.10515898 0.0679438484808 0.05065843309 0.0401873774882
1 2.40998324154 0.146576607691 7.67237940594 -26.056073013 -19.0481534665 -89.9161770682 0.0453923445126 -0.0178954522 0.0265607381106
1 15.6235109488 15.7676783471 10.2583413843 -15.5853223497 33.1309094554 124.437821587 -0.00182265951171 0.0545496645399 0.0733277699773
1 0.249565085283 2.77724203366 13.1019815208 -48.68316967 -42.9815480086 -112.584921964 -0.0960419123767 -0.0315545151177 -0.0379991165326
1 2.73271299383 2.83128832459 10.6801696541 -2.91748753973 11.8564575821 12.2566619681 -0.0126669870401 -0.0605329616846 -0.0845526058244
1 2.52507857531 0.0540880574149 13.2678005937 -133.283254049 119.70227516 -152.866188351 -0.00958235832074 0.0419411794926 -0.115413349683
1 0.232393441654 5.48843674113 15.5459521411 27.4231196532 -84.1642198079 156.269575227 -0.0779459062632 -0.0890172565003 0.0976221256896
1 15.7677015252 8.17882012047 2.68030688415 -40.7204702108 71.175618345 -128.536450165 0.00816448283626 -0.0368865898246 -0.0644920691391
1 2.52169682948 7.83459989907 15.6742953507 -5.41798092562 -151.431218919 154.353579963 0.0761080824609 0.0377387535286 0.071194870211
1 2.64993500694 5.38133523513 2.64058422124 -168.952755758 141.298407682 -161.4207811 -0.0698834754371 0.00519021030021 -0.0732677478573
1 15.7272860685 5.35999727925 5.04840843707 -37.3074104494 15.5374867123 22.5677347646 0.00121730260519 -0.00864970976728 0.0315112789658
1 0.217274059047 8.10043286526 7.52331668459 306.66579511 -88.3080973606 -204.449798404 -0.0146704946768 -0.0606236182971 0.136115350987
1 2.61812218022 7.87976476186 5.50225900475 11.2187565151 -13.1629203171 65.3125421865 -0.000807796429279 0.0384395398233 -0.102460443313
1 2.66771882986 5.20292277565 7.8435608273 -247.279745812 -9.85970108959 98.4326199374 -0.0382481129052 0.000689583700847 0.0248812567164
1 0.0594667626474 5.38872405462 10.5829702482 92.7912157683 -114.754661265 -60.1406825539 -0.000696178653821 -0.037347776064 -0.0725682451829
1 0.00697822209206 8.03581396285 13.0896565125 -77.3469390336 173.076116227 -14.6575324758 -0.0207333272633 0.0555839098517 -0.00701829421059
1 2.49306662562 7.8793397879 10.4980763444 -50.7239590599 2.67981096005 -32.7858457956 0.0518553650808 0.0525650100044 -0.0432634336109
1 2.66394327401 5.4890817746 12.8800191643 129.672846872 126.461503223 -90.6050638117 0.0681753885117 -0.00106053842876 0.0582690181715
1 0.104549554447 10.663810962 15.6478708742 19.5813259907 -153.897806497 -97.2774682177 -0.0832474694889 -0.0672941075495 0.0577732128871
1 0.0158829250434 13.3677030216 2.54588399543 -124.342310101 111.268984936 112.104787791 -0.0567518211291 -0.00137802377667 -0.00137433220809
1 2.60635289874 13.1612228356 15.657102651 176.011198446 -128.071390156 124.965005322 0.0615913419249 0.0101934377691 0.0753071673321
1 2.5043658575 10.6914510918 2.53293016883 -183.650635545 -170.69954343 -30.9768331922 -0.0182700285525 -0.110116078551 -0.0230981287088
1 0.0616502279695 10.58296272 5.25644109127 205.012237384 86.1136385661 13.0241499914 0.0196976686674 0.0788597747116 -0.0170309802968
1 15.7592737471 13.2506802135 7.72905366815 230.358757417 -232.174346878 93.8905501571 0.0299963771046 -0.0740758617996 0.0216058153694
1 2.39448998972 13.0670306712 5.07110721294 -30.5399655369 -8.62249087784 72.6017295409 0.0481485517656 0.0496743161466 0.0846286917859
1 2.61889128271 10.5719038691 7.95411751377 -259.753939218 28.334645193 44.5829477176 -0.0390728007904 0.0115347255009 0.00611489233139
1 0.0241880380653 10.6548619024 10.5955526158 62.71869364 97.9253302269 -84.1172696443 0.0298386681478 0.0111787724485 -0.0550245293131
1 0.0218328876989 13.2163595682 13.1953239927 -122.0475743 231.130321777 -64.4587182329 -0.0557757482387 0.0690559575242 -0.0686549987044
1 2.55645019012 13.4144822758 10.3788496842 20.2832262215 -8.37259617062 -64.6221015936 -0.00964889967457 -0.0380901592702 -0.00250255394619
1 2.61644264091 10.5351230342 13.3197900415 184.465954867 5.52192085916 -79.2980423291 0.0693167717594 0.00671821256262 -0.107626682394
1 5.18871232636 0.144575867553 0.0273726624786 88.383536245 -141.870900949 -80.0096901921 0.0425573575703 -0.0526454006066 -0.0428498115318
1 5.33670094721 2.78129285221 2.58849407404 99.1548007578 53.1371702895 151.888938085 -0.0228980107836 0.00304136256552 0.0528916775591
1 7.84884968968 2.83756034851 0.0205154671865 141.369557409 -3.40509283471 2.21639807391 0.023397747753 -0.0273645943052 -0.0470405695166
1 7.76643784713 0.176275084131 2.42587894414 -38.3870782225 -66.1034217998 -51.74364203 0.0157391650358 -0.0375469981033 0.0473762950136
1 5.12376159752 0.0911715752874 5.4130498832 -66.3338937952 224.610426205 159.610110606 0.0262417102209 0.00160642134356 -0.0174314409285
1 5.491111345 2.62557276518 7.75802687115 99.6063583621 -119.732247652 -143.561655527 -0.0597358873812 0.00348318663468 -0.044671423829
1 8.13650770184 2.65664276727 5.27100672168 -170.176330117 93.0594562856 -145.921329124 -0.109250127456 0.0588521663163 -0.0620218143919
1 7.92006174684 0.123422425557 7.8068092475 -188.361730449 -68.2610096714 99.6498382798 -0.0744669816892 -0.0602294710736 0.0427807798105
1 5.37889774724 15.6957859549 10.2256101569 36.7586147387 1.03268135365 -129.514157194 -0.0495866214041 0.0681397448765 -0.00566908801687
1 5.15953090977 2.8504259455 13.0637822121 -116.98330244 16.7310294537 -101.046203698 0.0149803788499 -0.0335753723025 0.0124390774313
1 7.84852562205 2.62166744936 10.3303015513 88.4543529325 -251.753200666 118.874541577 0.0511489322688 -0.0155233982412 0.0655038473131
1 7.85264340546 0.117013656967 12.9393833156 105.176061495 -15.8360581454 -27.3490649435 -0.0010654698387 0.00200583415817 0.04647828614
1 5.16361994146 5.3453958417 15.774753379 -86.2496770388 -44.9308854161 12.0897757041 -0.0109600519665 0.00724643757379 -0.0128343274737
1 5.30008622656 7.95861385054 2.60298369389 -22.2895937282 121.937194716 -79.714819677 -0.0390172123986 0.0492023212447 -0.0504539274416
1 7.77985907535 8.12265149442 0.0785871578144 -228.628260989 -65.7037759413 177.357577393 -0.026412487203 -0.0704151329434 0.015389788892
1 7.91822035264 5.37510407109 2.59051788245 82.7010932241 122.373716448 95.3688297857 0.00294224720779 0.0204350200069 0.0147019586055
1 5.13513130006 5.41123798669 5.17915237919 117.803789663 -136.639043587 186.856299899 0.0907848470355 -0.0790450142793 0.0568173645644
1 5.31583916491 7.98569882326 7.65656812129 140.915782147 15.5125721897 7.2951348245 0.0369644558408 0.00108803009698 0.0760178456255
1 7.74089353168 7.91505167265 5.15379902781 -101.590882505 -130.160434398 89.0432758912 -0.0304179503355 -0.0795797381591 0.0268944588332
1 7.87193926648 5.47285636495 7.71499344697 -179.480870586 153.286424697 -172.969156448 -0.0546182514286 -0.036210682076 -0.0242074726086
1 5.28184223796 5.40100195683 10.4312502822 -174.96002828 165.918885827 33.2203678196 -0.0226719354568 0.032474444325 -0.0129306936276
1 5.38298497232 7.88870476751 13.0638294769 0.885235437214 -10.6558811939 -68.4513694646 -0.0426403108876 0.0323567322572 -0.00193390783288
1 7.96182613636 7.99321812873 10.5199907708 -14.6309106476 0.931130381435 -19.6744116023 -0.0149826191459 0.0152302368441 -0.0302606416018
1 7.83726310052 5.36005889274 13.0644648548 85.282531131 -39.6808130666 96.5218051988 0.041059288072 -0.0295282943625 0.0303580076601
1 5.30617620153 10.70612579 15.7032326622 91.863292745 98.3529032539 -2.76887524287 -0.0168985910176 -0.0256597120499 0.00383511831195
1 5.03303664304 13.0730201125 2.42272935553 63.0591854028 -80.54383714 -137.821951279 0.0892408909874 0.0497030663691 0.0153368528372
1 7.83240997108 13.0446440099 0.0205960057066 -119.619849666 19.2412966375 -100.385247002 -0.0249297055527 0.053461343421 -0.0356371108714
1 8.0089087162 10.509480676 2.65532928176 -102.522073996 -0.762966419829 -77.6537061165 -0.0876377451064 0.033523378666 -0.0684919557008
1 5.28064091377 10.6536040517 5.10694480246 64.664966585 118.159937137 -59.4263422151 -0.00636641048421 0.00348654743635 0.00113118431488
1 5.19965927304 13.0827759565 7.86610298425 62.8400923308 69.5723467427 61.4708213369 0.0244447450888 0.042814476309 -0.0193542662786
1 7.95234992171 13.2090006609 5.14351616417 193.370492754 -45.5344410436 -38.0932452368 0.0062332915425 -0.00324191462103 -0.00681117243391
1 7.94890750985 10.6379685216 7.76968854548 -47.6522086813 92.6415580504 -79.9590005924 -0.000530383481026 -0.00602788611205 -0.000618177026972
1 5.53849097041 10.6766180028 10.5212271029 -2.04556393377 52.3421099087 107.812697688 -0.058040452372 -0.0114271118499 0.0116305647526
1 5.07042913793 13.3977382889 12.9274361887 82.6173569711 -61.773617397 -58.0923932048 0.066705071839 -0.0662304355388 0.0341338605007
1 7.88809127811 13.4110778724 10.3474393783 -124.245659547 -15.1802496163 -155.010689569 -0.0335765732102 -0.0518935941665 0.00167120638569
1 7.84540886775 10.6343753554 13.1940549174 -32.5981000674 61.984633731 54.5723900717 -0.0085334767316 0.0162687136093 -0.0110797642186
1 10.5031408135 0.18693929506 0.144490319011 -202.871302669 241.470138589 -113.215057515 -0.109183985899 0.0378008097407 -0.132977949526
1 10.5765050178 2.82724350641 2.49770401692 164.438494428 -21.9245585827 -67.3751870886 0.00148912932684 -0.0496999681144 0.0101559997847
1 13.0817113956 2.72315249056 15.4847497613 60.9940456906 0.6315920958 76.3832505171 0.0665705626993 0.0103012287283 0.0490501264114
1 13.1108184798 0.178215682263 2.36303060605 132.62955579 36.2697236408 88.0480069339 0.0762154586956 0.00891472145991 0.1027042564
1 10.44788989 0.0469954953616 5.32945369506 51.9361731907 -46.2057750164 -101.494752209 0.0514866712782 -0.0521290580358 -0.116275704334
1 10.6664842075 2.40942717584 7.98913012942 243.667208626 -35.448335613 266.293734658 0.030657710186 0.128606135142 0.0461383661651
1 13.058396671 2.73998660771 5.20947422229 -20.9191954366 8.83502197248 62.975550883 0.00904332138015 -0.0175518975136 0.00210678290231
1 12.8961876143 0.13341833895 7.80409376715 -58.4727699824 284.122301461 -27.4659673286 0.0826130724665 0.0254442273897 -0.0010649466804
1 10.6514526429 0.113540622586 10.4970380555 -17.4647055982 216.880893726 71.5063270442 -0.0364275528301 0.0368123599291 0.0280574654514
1 10.2840807161 2.53142619325 13.12975827 -229.978741186 -94.3594412158 -29.1602833254 -0.0189513354319 0.0362560379491 -0.0356489117238
1 13.194034703 2.8760240593 10.4925077882 -32.1238758053 -7.73451824128 -70.3378026164 -0.00937436126918 -0.0462192756045 0.0122955966597
1 12.9895240686 0.0880363085623 13.1021310664 104.927832112 -69.9285058591 -78.5240916595 0.0647952578188 -0.0350139377743 -0.0243413094905
1 10.5368455728 5.23784429859 15.6097320539 -105.26303874 178.96621616 -178.084892302 -0.0419288053272 0.0599932226484 -0.0204434140514
1 10.6562311413 7.78282213222 2.48501174655 62.7672247677 -220.511213661 -169.605542577 0.0054408455362 -0.0469641172006 -0.0522411383843
1 12.9379525719 7.87622945522 15.4593784295 -68.6614780112 16.301959339 108.71946183 0.0664235848876 0.0403256952614 0.111719627484
1 13.1657474716 5.23172891563 2.50694872494 92.5883448082 -23.0674239891 -29.7627926074 0.0438326208016 0.0176635940281 -0.0177458529075
1 10.5227596014 5.31614254538 5.06930645725 26.1698317185 31.8819746759 -100.372848089 0.0197820558719 0.0200444238864 0.0174799675628
1 10.5285396126 7.68497142568 7.76250556573 226.594539725 -21.682484558 62.7873929827 0.0545438266122 0.0933060857267 0.00904998351981
1 13.2509791943 7.98034737535 5.30159367661 -175.49852233 -220.074210399 -128.431257661 -0.0856370715907 -0.066564909292 -0.0499570857898
1 13.2150452654 5.30523366321 7.95799264611 44.4486443531 16.5058595358 -67.6606768934 -0.0036220857627 0.0255148482436 -0.0441883518551
1 10.4786749556 5.46128125471 10.3739192592 114.755647471 -38.449006916 47.5308731676 0.0344996128492 -0.0578970451733 0.0595486061319
1 10.4304648987 7.89184156133 13.1818621225 114.982090719 -127.934975817 -119.514191412 0.00184068167482 -0.00954027807586 -0.065907097853
1 13.1972607657 8.02752111178 10.6265366639 -181.278703055 19.5756391868 137.435103556 -0.0483456703346 0.0102297057015 -0.043160624179
1 13.2287514463 5.52231807885 13.0021333235 -21.4797503681 59.1367348204 -89.0011204564 -0.0391842479656 -0.0674400270601 -0.0182440604816
1 10.6215286932 10.5404994409 15.714034291 296.02859557 172.444459775 -91.4626742844 0.0443696644674 0.0517567219267 -0.00628310280678
1 10.5539475047 13.2372986855 2.39550296268 107.320332265 -20.1662948655 114.442236289 0.008873543214 -0.0282708006128 0.099356034942
1 13.0143232756 13.2791923525 15.6381579759 -136.632501044 -112.211913525 -38.9130668243 0.0231682626068 -0.0431302055251 -0.00851233876346
1 13.1318097606 10.6594178 2.64214216344 -3.87291538046 -42.0965037524 -97.4118122749 -0.00247461537007 -0.00195319760876 -0.0261487649072
1 10.314496719 10.1979798217 5.16432010425 73.2970334427 242.842738622 248.176599337 0.139516081755 0.146584441632 0.107566005335
1 10.4046681036 13.2124031643 7.92439056592 -9.6049302194 -222.269120452 -155.425793752 0.0179366345805 -0.0601914479646 -0.0706733494481
1 13.0433016256 13.4078537555 5.09407897894 -182.370757132 -86.1275240485 -159.78856738 -0.0503599385435 -0.0755295478261 -0.0313332909257
1 13.0088105469 10.683194986 7.86240857754 -237.37492357 116.244874384 146.711720438 -0.0296404369195 -0.000155341222513 0.00697411101035