108
Atom. timestep:0
1 0.00260190479483 16.214613057 16.2134076261 260.181971444 -38.7028085933 -159.245892898 -0.000704518903168 -0.000704518903168 -0.000704518903168
1 16.2141825878 2.70332268123 2.70093386212 -81.7497276643 82.259616402 -156.622293528 -0.000704518903168 -0.000704518903168 -0.000704518903168
1 2.70111288061 2.70260310704 0.00185861636576 -138.720444444 10.3021974443 185.853129013 -0.000704518903168 -0.000704518903168 -0.000704518903168
1 2.70492066666 16.2134388821 2.69895593259 242.058158557 -156.120294473 -354.415244689 -0.000704518903168 -0.000704518903168 -0.000704518903168
1 16.2126105271 0.00156782930691 5.40321854283 -238.955798722 156.774423314 -178.154221787 -0.000704518903168 -0.000704518903168 -0.000704518903168
1 16.2136677458 2.70345696143 8.1079181791 -133.233927592 95.6876364436 41.8264166036 -0.000704518903168 -0.000704518903168 0.000704518903168
1 2.70485746967 2.70492641653 5.40219255648 235.738458718 242.63314481 -280.752856296 -0.000704518903168 -0.000704518903168 -0.000704518903168
1 2.70382687417 0.000515887831977 8.11112340039 132.678910106 51.5802764939 362.348542628 -0.000704518903168 -0.000704518903168 0.000704518903168
1 9.71361730862e-06 0.00108460760411 10.80887632 0.962855351106 108.452253343 -112.35948921 -0.000704518903168 -0.000704518903168 0.000704518903168
1 16.2140574366 2.70496211383 13.5117134085 -94.2648467843 246.202875255 -78.6506427852 -0.000704518903168 -0.000704518903168 0.000704518903168
1 2.70022750614 2.70284691733 10.8105567674 -227.257891202 34.6832269014 55.6852483265 -0.000704518903168 -0.000704518903168 0.000704518903168
1 2.7013600819 16.2142707333 13.5124686684 -114.000315557 -72.9351778499 -3.12465190415 -0.000704518903168 -0.000704518903168 0.000704518903168
1 0.00244062031853 5.40273182984 16.2131226091 244.053523917 -226.825520658 -187.747599813 -0.000704518903168 -0.000704518903168 -0.000704518903168
1 16.2112945797 8.10809971524 2.70170711842 -370.550531736 59.9800294953 -79.2966638774 -0.000704518903168 0.000704518903168 -0.000704518903168
1 2.70430302896 8.10605923156 0.000488288046938 180.294388141 -144.068336482 48.8202980077 -0.000704518903168 0.000704518903168 -0.000704518903168
1 2.70321947572 5.40250409439 2.70180916816 71.9390653311 -249.599065557 -69.0916894981 -0.000704518903168 -0.000704518903168 -0.000704518903168
1 7.51556270205e-05 5.40674769232 5.40783523486 7.50705628041 174.760724398 283.514978152 -0.000704518903168 -0.000704518903168 -0.000704518903168
1 0.00248213682977 8.10963047936 8.10922270633 248.205175015 213.056440915 172.279138511 -0.000704518903168 0.000704518903168 0.000704518903168
1 2.70245282876 8.10698796094 5.41001996783 -4.72563039451 -51.195399619 501.988273606 -0.000704518903168 0.000704518903168 -0.000704518903168
1 2.70323732375 5.40590913221 8.1077413333 73.7238685386 90.9047136483 24.1418362574 -0.000704518903168 -0.000704518903168 0.000704518903168
1 16.2117395585 5.40603303442 10.8113987412 -326.052659014 103.294934555 139.882622094 -0.000704518903168 -0.000704518903168 0.000704518903168
1 0.00203508345492 8.10867666709 13.5138634416 203.499837816 117.675214231 136.352661637 -0.000704518903168 0.000704518903168 0.000704518903168
1 2.70058451241 8.1057361352 10.8090131799 -191.557264506 -176.377972201 -98.6735078461 -0.000704518903168 0.000704518903168 0.000704518903168
1 2.70283355649 5.40659849108 13.5115391413 33.3471425284 159.840600604 -96.0773613446 -0.000704518903168 -0.000704518903168 0.000704518903168
1 0.00176889960469 10.8104981445 0.00241476215263 176.881452963 49.8229543778 241.467707344 -0.000704518903168 0.000704518903168 -0.000704518903168
1 16.2119059185 13.5118146026 2.70515134093 -309.416654291 -68.5312351838 265.125585039 -0.000704518903168 0.000704518903168 -0.000704518903168
1 2.70192759522 13.5133545269 16.2147438666 -57.2489843693 85.4612005838 -25.6218499549 -0.000704518903168 0.000704518903168 -0.000704518903168
1 2.70328507332 10.8103976748 2.70241421916 78.4988249228 39.7759906734 -8.58659066566 -0.000704518903168 0.000704518903168 -0.000704518903168
1 0.000595735837601 10.8071714929 5.40263749965 59.5650770053 -282.842198566 -236.258539403 -0.000704518903168 0.000704518903168 -0.000704518903168
1 16.2137975641 13.5114024711 8.10677662857 -120.252099404 -109.744380741 -72.3286363316 -0.000704518903168 0.000704518903168 0.000704518903168
1 2.70293510967 13.513316053 5.40392491931 43.5024600422 81.6138094455 -107.51657456 -0.000704518903168 0.000704518903168 -0.000704518903168
1 2.70520673872 10.8104310566 8.10735406005 270.665363721 43.1141634404 -14.5854886885 -0.000704518903168 0.000704518903168 0.000704518903168
1 0.00143689888831 10.8113538572 10.8095936546 143.681381537 135.394229869 -40.6260348379 -0.000704518903168 0.000704518903168 0.000704518903168
1 0.00119811623627 13.5125946951 13.5113391766 119.803116487 9.47802105029 -116.073832258 -0.000704518903168 0.000704518903168 0.000704518903168
1 2.70347400482 13.5095440947 10.8080701402 97.3919753472 -295.582025024 -192.977473637 -0.000704518903168 0.000704518903168 0.000704518903168
1 2.70323439329 10.8105754575 13.5164032504 73.4308221598 57.5542538349 390.333544109 -0.000704518903168 0.000704518903168 0.000704518903168
1 5.40611517782 0.000169514644018 0.000459817499523 111.509275048 16.9429579198 45.9732432845 -0.000704518903168 -0.000704518903168 -0.000704518903168
1 5.40684536141 2.70230345119 2.70247115542 184.52763339 -19.6633875267 -2.89296400439 -0.000704518903168 -0.000704518903168 -0.000704518903168
1 8.10871966136 2.70165478566 6.4486979914e-05 121.974641877 -84.529939682 6.44019157659 0.000704518903168 -0.000704518903168 -0.000704518903168
1 8.10751113756 16.2128485795 2.7009798373 1.12226251411 -215.15055834 -152.024775624 0.000704518903168 -0.000704518903168 -0.000704518903168
1 5.40477851905 0.00224783443458 5.40444646302 -22.1566013133 224.774935646 -55.3622044199 -0.000704518903168 -0.000704518903168 -0.000704518903168
1 5.40534639984 2.70416545539 8.10835951082 34.6314775992 166.537031757 85.9595879324 -0.000704518903168 -0.000704518903168 0.000704518903168
1 8.10626771559 2.70039704882 5.40568048466 -123.219933483 -210.303622934 68.0399595991 0.000704518903168 -0.000704518903168 -0.000704518903168
1 8.10673033131 0.00140047245609 8.1047809127 -76.9583622858 140.03873834 -271.900221602 0.000704518903168 -0.000704518903168 0.000704518903168
1 5.40359965001 0.00162329092748 10.8087594411 -140.043504312 162.320585336 -124.04738245 -0.000704518903168 -0.000704518903168 0.000704518903168
1 5.40470000822 2.70596577496 13.5122916404 -30.0076839813 346.568986998 -20.8274511255 -0.000704518903168 -0.000704518903168 0.000704518903168
1 8.10712183973 2.70076739237 10.807638184 -37.8075206224 -173.269268282 -236.17309507 0.000704518903168 -0.000704518903168 0.000704518903168
1 8.10738116612 0.00130567226911 13.5135433506 -11.8748815211 130.558719702 104.343567646 0.000704518903168 -0.000704518903168 0.000704518903168
1 5.40355905101 5.40336894839 8.88255205316e-05 -144.103403974 -163.113666334 8.87404562277 -0.000704518903168 -0.000704518903168 -0.000704518903168
1 5.40444752497 8.1077362768 2.707830145 -55.2560085952 23.6361859885 533.005990447 -0.000704518903168 0.000704518903168 -0.000704518903168
1 8.10652266476 8.10692794223 0.00153298705882 -97.725016639 -57.1972702469 153.290198528 0.000704518903168 0.000704518903168 -0.000704518903168
1 8.10742959908 5.4072640513 2.70390905489 -7.03158574061 226.396622614 140.896981692 0.000704518903168 -0.000704518903168 -0.000704518903168
1 5.40440788448 5.40103142753 5.40482677184 -59.2200577482 -396.865750958 -17.3313221014 -0.000704518903168 -0.000704518903168 -0.000704518903168
1 5.40663349565 8.10794508364 8.10567098123 163.341057577 44.516869738 -182.893369075 -0.000704518903168 0.000704518903168 0.000704518903168
1 8.10823899014 8.1035127078 5.40606565731 73.9075203108 -398.720711308 106.557223705 0.000704518903168 0.000704518903168 -0.000704518903168
1 8.1083930491 5.40590739147 8.10764925963 89.3134155422 90.7306401942 14.9344696636 0.000704518903168 -0.000704518903168 0.000704518903168
1 5.40454116359 5.40505926678 10.8088118652 -45.892146653 5.9181713511 -118.804970354 -0.000704518903168 -0.000704518903168 0.000704518903168
1 5.40646763459 8.10704022082 13.514083713 146.754951232 -45.969411266 158.379808018 -0.000704518903168 0.000704518903168 0.000704518903168
1 8.10487201345 8.10853215082 10.8133189885 -262.790146715 103.223588042 331.907353041 0.000704518903168 0.000704518903168 0.000704518903168
1 8.10590628911 5.40124467231 13.5089678585 -159.362582065 -375.541272923 -353.205640558 0.000704518903168 -0.000704518903168 0.000704518903168
1 5.40363188282 10.8093306503 0.000620657941119 -136.820223882 -66.9264672389 62.0572873412 -0.000704518903168 0.000704518903168 -0.000704518903168
1 5.40322912721 13.5137460776 2.70605548947 -177.095784455 124.616269694 355.540438543 -0.000704518903168 0.000704518903168 -0.000704518903168
1 8.1060315748 13.5137299425 0.000795689809422 -146.834013117 123.002756863 79.5604740594 0.000704518903168 0.000704518903168 -0.000704518903168
1 8.10557979479 10.809843849 2.70328619458 -192.012013696 -15.6065888087 78.6109510955 0.000704518903168 0.000704518903168 -0.000704518903168
1 5.40330589312 10.8105962119 5.40397152356 -169.419193052 59.6296982362 -102.856149731 -0.000704518903168 0.000704518903168 -0.000704518903168
1 5.40611943775 13.5124357887 8.10539839227 111.935268334 -6.41261895127 -210.152265226 -0.000704518903168 0.000704518903168 0.000704518903168
1 8.10961103165 13.5139905628 5.40802353455 211.111669934 149.064786704 302.344946329 0.000704518903168 0.000704518903168 -0.000704518903168
1 8.10741951261 10.8130566299 8.10552697496 -8.04023275404 305.671491088 -197.293996209 0.000704518903168 0.000704518903168 0.000704518903168
1 5.40540463238 10.811273179 10.8077501015 40.4547311204 127.326407975 -224.981339446 -0.000704518903168 0.000704518903168 0.000704518903168
1 5.40396987515 13.5129354738 13.5141184615 -103.020991118 43.5558829029 161.854658924 -0.000704518903168 0.000704518903168 0.000704518903168
1 8.10564891727 13.513572745 10.8111830657 -185.099765644 107.28300282 118.315075571 0.000704518903168 0.000704518903168 0.000704518903168
1 8.10528456163 10.808256152 13.513402392 -221.53532956 -174.376296017 90.2477008172 0.000704518903168 0.000704518903168 0.000704518903168
1 10.8092574914 16.214464495 0.0018717198241 -74.2423545093 -53.5590077516 187.163474838 0.000704518903168 -0.000704518903168 -0.000704518903168
1 10.8103115046 2.70534739904 2.70111495465 31.1589616116 284.731395447 -138.513040636 0.000704518903168 -0.000704518903168 -0.000704518903168
1 13.5132266834 2.70415994412 16.2129181515 72.6768473475 165.985904462 -208.193357867 0.000704518903168 -0.000704518903168 -0.000704518903168
1 13.5117157669 16.213005616 2.70035875485 -78.4148017834 -199.44690556 -214.133020325 0.000704518903168 -0.000704518903168 -0.000704518903168
1 10.8082488291 16.2145958268 5.40555767331 -175.108579696 -40.4258298577 55.7588244589 0.000704518903168 -0.000704518903168 -0.000704518903168
1 10.8062149052 2.70120462906 8.10515554185 -378.500968378 -129.545599266 -234.437307076 0.000704518903168 -0.000704518903168 0.000704518903168
1 13.5085334725 2.70082414063 5.40331003599 -396.644239515 -167.594442312 -169.004906394 0.000704518903168 -0.000704518903168 -0.000704518903168
1 13.5133755513 16.2139514032 8.107126309 87.5636344108 -104.86818338 -37.3605932039 0.000704518903168 -0.000704518903168 0.000704518903168
1 10.8092666073 0.000835529929829 10.8090348252 -73.3307653662 83.5444860746 -96.5089706004 0.000704518903168 -0.000704518903168 0.000704518903168
1 10.813190177 2.70117092594 13.5133653478 319.0262081 -132.915911865 86.5432846192 0.000704518903168 -0.000704518903168 0.000704518903168
1 13.5090258437 2.70251806791 10.8126711791 -347.407116426 1.79828494444 267.126416702 0.000704518903168 -0.000704518903168 0.000704518903168
1 13.5139667891 0.00197529579038 13.5150377439 146.68741125 197.5210714 253.782894555 0.000704518903168 -0.000704518903168 0.000704518903168
1 10.812617559 5.40440286228 16.2116810214 261.764404404 -59.7222776123 -331.90636036 0.000704518903168 -0.000704518903168 -0.000704518903168
1 10.8114502706 8.1058078902 2.70148749986 145.035569902 -169.202472805 -101.258519747 0.000704518903168 0.000704518903168 -0.000704518903168
1 13.5134745547 8.10720747102 0.000381718309089 97.4639767119 -29.2443916949 38.163324291 0.000704518903168 0.000704518903168 -0.000704518903168
1 13.5152865224 5.40322401336 2.70179541579 278.660740219 -177.607169378 -70.4669272919 0.000704518903168 -0.000704518903168 -0.000704518903168
1 10.8102719527 5.40676713146 5.40616613659 27.203774637 176.704638215 116.605151769 0.000704518903168 -0.000704518903168 -0.000704518903168
1 10.8125619666 8.10890838686 8.10851281207 256.205165858 140.847191491 101.289712828 0.000704518903168 0.000704518903168 0.000704518903168
1 13.5110082385 8.10667258765 5.407039258 -149.167643837 -82.7327281896 203.917292221 0.000704518903168 0.000704518903168 -0.000704518903168
1 13.512805769 5.40338091701 8.10508266373 30.5854091978 -161.916804425 -241.725118797 0.000704518903168 -0.000704518903168 0.000704518903168
1 10.8093691673 5.40595416937 10.8101986296 -63.0747648792 95.4084300589 19.8714678287 0.000704518903168 -0.000704518903168 0.000704518903168
1 10.8130996622 8.10463548871 13.5119697064 309.974722783 -286.442620934 -53.0208482991 0.000704518903168 0.000704518903168 0.000704518903168
1 13.5134388318 8.10610870054 10.8106906516 93.8916885258 -139.121438583 69.0736612139 0.000704518903168 0.000704518903168 0.000704518903168
1 13.5134798165 5.40803615577 13.5095795961 97.9901565182 303.607068852 -292.031885558 0.000704518903168 -0.000704518903168 0.000704518903168
1 10.8109537396 10.8060767477 0.000469404602876 95.3824660147 -392.316716839 46.9319536137 0.000704518903168 0.000704518903168 -0.000704518903168
1 10.8100623958 13.511886942 2.70125123841 6.24808653389 -61.2972914757 -124.884664367 0.000704518903168 0.000704518903168 -0.000704518903168
1 13.511243824 13.5128009596 16.2146925074 -125.609093623 30.1044625716 -30.7577679566 0.000704518903168 0.000704518903168 -0.000704518903168
1 13.5139193538 10.8082174414 2.70309325 141.943889745 -178.247352112 59.3164935942 0.000704518903168 0.000704518903168 -0.000704518903168
1 10.8103451958 10.8110134884 5.40390556872 34.528088471 101.357342937 -109.451633512 0.000704518903168 0.000704518903168 -0.000704518903168
1 10.8106329921 13.5132868678 8.10907073003 63.3077158458 78.695285118 157.081508551 0.000704518903168 0.000704518903168 0.000704518903168
1 13.5130316771 13.5131208718 5.40566520225 53.1762208373 62.0956907829 66.5117184475 0.000704518903168 0.000704518903168 -0.000704518903168
1 13.509528787 10.8097486398 8.10806738169 -297.112789582 -25.1275158933 56.7466754549 0.000704518903168 0.000704518903168 0.000704518903168
1 10.8119862242 10.8115419738 10.811784161 198.630920665 154.205886802 178.424605133 0.000704518903168 0.000704518903168 0.000704518903168
1 10.8095288115 13.5114075322 13.5107593728 -47.1103388093 -109.238275233 -174.05420939 0.000704518903168 0.000704518903168 0.000704518903168
1 13.5145521184 13.5108199292 10.8075350351 205.22034644 -167.998572788 -246.487984364 0.000704518903168 0.000704518903168 0.000704518903168
1 13.5132053405 10.8086891846 13.5128322515 70.5425570359 -131.073034893 33.2336532227 0.000704518903168 0.000704518903168 0.000704518903168
108
Atom. timestep:0.997765006386
1 0.237844428699 16.1795007666 16.0690808668 181.310312849 -25.9749803587 -112.390160529 -0.0701932958652 0.0132947678622 0.0415444641883
1 16.1371596429 2.76721613489 2.55796403345 -62.79080134 21.1746265725 -116.939570225 0.0244964281508 -0.0595732643549 0.0297107850412
1 2.58344216116 2.70000052389 0.163579087339 -70.4022614542 -33.9616238884 112.997967709 0.0627959223118 -0.0444127200241 -0.0597777584039
1 2.92167377642 16.0777989928 2.37406102789 164.317315445 -87.8846868373 -262.062390642 -0.0659822903453 0.0654596468482 0.0819072983267
1 15.9940178277 0.160665401491 5.23116973168 -185.20437992 162.5070935 -161.17751677 0.033907299029 0.00280026294744 0.0121320924723
1 16.0873579265 2.79271980782 8.14557338317 -110.550888074 74.3965055512 31.727720093 0.0216757965351 -0.0205997972395 -0.00505501118067
1 2.90132553972 2.90731246022 5.14364485713 101.482490557 103.458242483 -210.701318933 -0.136079609373 -0.143465456374 0.0623812964126
1 2.81918363884 0.0501914946108 8.43491030169 73.8967393868 43.1243913111 242.691504081 -0.0614138537038 -0.0103746508287 -0.106276462093
1 16.2084402761 0.100942216958 10.7074489543 -23.7748557242 82.74855672 -79.9008822069 -0.0224561536663 -0.0208316655574 0.025957936098
1 16.1278865853 2.93353051575 13.4302652429 -71.8599175191 188.771152175 -91.2353359437 0.0151307497235 -0.0536824839542 -0.0165718047586
1 2.48297827442 2.74915820018 10.8672685243 -195.765861205 69.8242840889 57.8394384458 0.0279488301527 0.0280863486165 -3.91666620271e-05
1 2.60210077781 16.1538185017 13.4988199499 -66.790361912 -36.2645799786 -38.8211076977 0.042807410761 0.0286879370628 -0.035180845634
1 0.230591566176 5.20686584765 16.0344065106 193.604412608 -127.054272147 -156.621628276 -0.0444303279673 0.0913291711222 0.0318193680213
1 15.8824604037 8.14067493975 2.62949865312 -240.02802202 -29.6751223923 -56.5758191704 0.116909022847 -0.0844850365977 0.0217295351499
1 2.87489798229 7.96522374324 0.061476583501 150.999735763 -133.436215406 82.6541067679 -0.0243706378744 0.0102174443963 0.0238781443587
1 2.766256134 5.18636891831 2.63739455633 47.7208364481 -143.912828163 -63.0847323306 -0.0170317153911 0.0953230234367 -0.00700502623286
1 0.0121964546453 5.57416534178 5.66960574946 24.6035715502 156.109746638 218.246706199 0.0183611346284 -0.0103378418993 -0.0526787174046
1 0.215941231645 8.31865182622 8.27427492338 135.431297396 202.525090777 145.387857137 -0.105568035682 -0.00545411147786 -0.0309503690582
1 2.701852714 8.05669421642 5.86960884496 12.1536472871 -42.2135372289 370.948629765 0.019120016317 0.0169291323276 -0.114357454857
1 2.77068279852 5.4777768001 8.13950500798 56.2183563836 27.0604629407 47.8157108514 -0.0128490495014 -0.0624651554724 0.0209023932993
1 15.920806483 5.49745418025 10.9224294025 -198.81483028 60.2273449606 37.0268856901 0.139884850621 -0.0470652877707 -0.111733545086
1 0.199094304449 8.22759660161 13.6483106115 183.21731624 119.622416895 130.561856949 -0.0176226251011 -0.00109897558976 -0.00514536098345
1 2.53413618818 7.9472011786 10.7257281403 -113.81265828 -125.677141858 -46.4412451711 0.0681304065138 0.0371826491539 0.0526906525277
1 2.73520662231 5.55849018158 13.415728001 31.1105848664 136.146588611 -95.0743777252 -0.0011587846152 -0.0189475011127 0.00181593798632
1 0.167095787347 10.8624396871 0.232302995433 140.758155563 55.3586681554 206.957101839 -0.0320468292419 0.00277664836468 -0.0273598207684
1 15.9274401185 13.4483737944 2.9499380133 -232.128634562 -55.901045494 202.814752211 0.0668685047913 0.00670106077242 -0.053058415274
1 2.65078251034 13.5879115264 16.1970119413 -37.198856693 47.4517953101 -7.13229291104 0.0181731973872 -0.0392516352851 0.00707293441517
1 2.77322524175 10.8447146031 2.696636886 55.0054027076 26.1170540271 -0.890341721182 -0.0157058187697 -0.00754404381371 0.00659888509668
1 0.0603671725406 10.5377655829 5.19153417422 62.8607103348 -242.893722681 -161.15280494 0.00663607487122 0.0319403660086 0.0604936712507
1 16.1140049095 13.4022773793 8.02301646007 -57.1994262226 -108.375877307 -106.15390481 0.0539880151037 0.000320379029574 -0.0274577161753
1 2.7243410557 13.6000608676 5.31486639022 -28.6627964103 95.5985313599 -47.5241435097 -0.0684293193133 0.0094041990518 0.0559038205763
1 2.95869571623 10.8527106431 8.08500685482 217.313317551 37.7075265868 -40.1045901101 -0.0464369761796 -0.00930165765088 -0.0250674646514
1 0.140397105826 10.9298639711 10.7754021286 128.046575073 83.2742478683 -20.3607993705 -0.0148071292537 -0.0443329739133 0.0181956690214
1 0.111043283405 13.5179557088 13.3983133214 90.5722174037 -2.59307576367 -107.341662614 -0.0223293544984 -0.00945287846301 0.00688305586194
1 2.79967118535 13.2399795007 10.6306919613 93.4009773386 -210.580206294 -144.162732744 -0.0041603127591 0.0808832260635 0.0431214211441
1 2.773956488 10.8599294778 13.8767905149 60.8518993012 34.0883384861 300.285634623 -0.0170592149124 -0.0182085555924 -0.0750045436554
1 5.50956276418 0.0252622947665 0.0342260265541 90.1548521977 41.679805075 7.0843036704 -0.0124126246989 0.0210088997356 -0.0354070589073
1 5.59345101494 2.67840395681 2.68556071038 189.971210341 -31.735010416 -46.787477487 0.00244056855087 -0.0084728869558 -0.0372928361971
1 8.22658053402 2.63161841503 0.0065447236216 108.928482467 -41.9194890708 6.05200011471 -0.0117393249525 0.0336244477485 -0.000907023255549
1 8.1086195492 16.0134200706 2.57324337487 -1.63928206775 -165.737074323 -73.5254613277 -0.00571410781886 0.0439359863116 0.0722229069081
1 5.37335304514 0.21429625715 5.35482686796 -54.3674395319 182.975376492 -38.0316594858 -0.0333311814756 -0.0394088368068 0.013902542173
1 5.43104869985 2.86133013537 8.19000739573 7.94568410916 135.163084774 71.6033473302 -0.0214878125475 -0.0306249032453 -0.0139306370508
1 7.99300720635 2.51717623883 5.44754341975 -95.3044391603 -121.332490627 -18.8190927884 0.020962928671 0.0838666728364 -0.0838274291552
1 8.01897014479 0.120259360823 7.8664215925 -115.406400984 70.6634142708 -161.474806761 -0.0399800104778 -0.0649640032294 0.104058481383
1 5.27920157585 0.155168088233 10.7075149452 -82.7342113518 137.0076075 -47.0920419297 0.0641690588971 -0.0183560013135 0.0776910885995
1 5.35550233584 3.01284735394 13.489706782 -98.8161448437 218.401516033 -26.8252573331 -0.0748649412757 -0.117675500096 -0.00520402471301
1 8.07243362139 2.53503203234 10.5855140419 -30.1843036862 -150.729323302 -193.467085239 0.00440471156604 0.0182916701282 0.0359773284423
1 8.09528786854 0.12946969299 13.6079469454 -11.1643558407 121.701051783 73.8429162375 0.00223075599338 -0.00944932870017 -0.0258820175429
1 5.27573166344 5.24879593832 0.0151385132513 -95.6822569404 -137.974957373 26.7403970447 0.0389422387631 0.0195764987389 0.0136313886229
1 5.34284370918 8.11774280584 3.21721134749 -73.3684895191 -21.1124609387 462.802731431 -0.0129090432461 -0.0428560190852 -0.0568730800901
1 8.01164161489 8.04281182268 0.149472890028 -89.825258979 -72.3817938793 139.685795912 0.00566627469056 -0.0048468347972 -0.0082619027425
1 8.10023618774 5.60913455566 2.82988586085 -9.99950809128 149.105431141 93.5319491308 -0.00557375224784 -0.068355574093 -0.0434900935261
1 5.36764111615 5.04454074752 5.39328464314 26.7493228646 -257.349303679 -0.14733824345 0.0991948705079 0.141132100143 0.0145852793593
1 5.57150884754 8.14953492463 7.93657529417 168.876685354 37.7464053263 -139.568798656 0.00544572466852 -0.00265479906878 0.0378422890936
1 8.18152574979 7.74667683112 5.51250364295 67.4345836795 -264.953255957 105.86837586 -0.0127516768347 0.122714291595 -0.00149955736455
1 8.19332818243 5.48993684916 8.13289604305 75.3724723204 65.1745990284 51.0675832073 -0.0122809498817 -0.0293757000153 0.0379495746883
1 5.35748141578 5.41725657391 10.6905488407 -48.4324225335 26.9862111824 -114.793536248 -0.00015418089325 0.020584381075 0.00781752987245
1 5.53066640865 8.05399390139 13.6684315303 74.1650317844 -71.9748694096 154.332749497 -0.0665299658629 -0.0281877965487 0.00865640250938
1 7.86556234467 8.205762989 11.115738641 -192.232778166 78.6048672163 240.475038145 0.0584825118244 -0.0294724823357 -0.0809070021572
1 7.97321348265 5.04913782998 13.1768385959 -67.3337873036 -297.09923798 -295.047369588 0.0941521308724 0.0766487314196 0.0395269425346
1 5.28057478577 10.7487209058 0.0767545747184 -90.1918568998 -48.6212406718 103.771748821 0.0462438971595 0.0136202855459 0.0341048974361
1 5.25550637462 13.6264052769 3.03623782641 -77.8612108953 86.5539990085 275.279630173 0.0970513565631 -0.0333657352079 -0.0714750226301
1 7.96570400701 13.6122789913 0.0705352883977 -128.071434666 47.9635879017 46.1942474149 0.0146077142943 -0.0642916697546 -0.033211140461
1 7.9239876873 10.7968255578 2.78286935805 -162.179034562 -7.88374513984 79.808570806 0.02235425643 0.00590173048525 -0.00129205352788
1 5.24913135956 10.8715866174 5.31593218454 -125.987945133 67.3955272537 -53.4789643817 0.0325499335297 0.0122039025609 0.0469598590892
1 5.50804241267 13.520816005 7.90135233082 77.8212425148 39.1556446179 -190.149883731 -0.0336989213766 0.0382174052411 0.0184499006803
1 8.3072307965 13.6553485945 5.6731762286 170.185550459 123.971780886 182.913577035 -0.0346096012757 -0.0246898982979 -0.109137769138
1 8.10853670835 11.0892858985 7.92375747609 17.8916274629 212.517873284 -146.912210519 0.0189809859727 -0.0846623420944 0.0478496154916
1 5.44699581799 10.9251528288 10.6001676153 53.3119013959 86.9105249934 -174.114708606 0.0245368571006 -0.0337742470584 0.0398265009595
1 5.30540644391 13.5568911377 13.6645230732 -88.9571150861 43.8716680484 128.355049853 0.012286704068 -0.000894405041298 -0.0260596476029
1 7.92529273417 13.6231227487 10.9233829191 -170.969368051 113.756686769 100.726004261 0.0111997230091 0.00516474615421 -0.013032137362
1 7.90067135236 10.6542227877 13.6099182575 -171.306150955 -105.863565242 112.204848787 0.0403099850066 0.0663527955431 0.0230454134987
1 10.7405295612 16.1663166863 0.170414632499 -58.7666908252 -36.6361322177 128.705726111 0.0105321157612 0.014570315043 -0.0511813778907
1 10.8327099287 2.97982709315 2.56550021186 5.72099864356 257.837667545 -133.729349373 -0.0196173284164 -0.0160399911519 -0.0018458741862
1 13.5927004477 2.86301550667 16.022745905 96.9863121382 147.937279058 -148.067453888 0.0263171582953 -0.00947182930304 0.0583441264327
1 13.4350534854 16.0344644986 2.49413535796 -69.9294662367 -136.351083124 -185.991282382 0.0119532885843 0.0515167664535 0.0294584380151
1 10.6516314176 16.1717341104 5.44304933764 -114.880259389 -46.3238638434 1.36517029662 0.0561524861428 -0.000844708921274 -0.0437055349913
1 10.4610161032 2.58694544894 7.88682627744 -272.552876998 -78.5818801371 -184.349802567 0.0961858111863 0.0490376555125 0.0440508947929
1 13.1299950519 2.53947576763 5.24055797731 -343.061881338 -149.124848994 -148.761512074 0.0436863217838 0.0153743409218 0.0184996477347
1 13.5910256193 16.1243259785 8.07318970645 59.1511653815 -60.7343547968 -27.4922442771 -0.0207865953562 0.033653075427 0.00746595410106
1 10.7390397993 0.0734088633312 10.7187949368 -66.4018084224 51.9574228575 -79.1129111717 0.00285049478321 -0.0236821384609 0.0129604144982
1 11.0918485734 2.57560017395 13.6032099573 180.995157172 -113.280557602 109.528370117 -0.139107107213 0.0108374169087 0.0403642498852
1 13.1877564794 2.70629801459 11.0437150629 -255.345767512 10.431190982 148.543797267 0.0960736205217 0.011452901467 -0.114903105117
1 13.6597275369 0.172640131202 13.7522805701 148.005725756 115.710329772 205.491176612 0.00662073583088 -0.0687292832167 -0.0385852028918
1 11.0566987787 5.34954670755 15.8960880891 209.538939356 -46.5516096862 -278.967577627 -0.0423948912387 0.00858871207847 0.0502019294354
1 10.9548004121 7.93672108333 2.60913054768 141.290316039 -171.813724954 -73.5840477639 -0.00121842273292 -0.00676364896064 0.0238805251831
1 13.6154465665 8.07002968131 0.0263530117808 105.829205381 -53.5170066255 -3.80809782359 -0.0012134500435 -0.0203505723196 -0.0431729291887
1 13.7764711577 5.24045086076 2.63639882451 220.374538812 -128.906879281 -55.0794554933 -0.057819875947 0.0469284773462 0.0129871433295
1 10.8384277484 5.56181275912 5.51367129561 33.990676907 106.289742998 89.4010377676 0.0114011194947 -0.0657761025716 -0.0220704755996
1 11.0356348206 8.23866561626 8.2184310547 149.880418335 95.8684059242 127.001511568 -0.0990107495045 -0.0556500439921 0.021437410193
1 13.3777812378 8.03348373491 5.59667005272 -97.3492470865 -50.1671585764 156.914354273 0.0479431344284 0.032085192809 -0.0435466503918
1 13.5306116016 5.24338652901 7.88905644088 -11.8743987192 -156.520883862 -163.7497292 -0.0407942174734 0.00398602688919 0.0641144392173
1 10.7455776739 5.49080752876 10.8179759199 -64.1298209096 64.7105905818 -16.1114586195 0.00159759442638 -0.0233245279385 -0.0283059079454
1 11.0869798993 7.85017811696 13.4610050168 193.936489278 -174.690093921 -47.2496703666 -0.108817377164 0.116295095493 0.00351904919657
1 13.6058591321 8.00059094088 10.8563724418 82.1160853722 -19.5812156267 -13.1962442168 -0.021112154675 0.125295526282 -0.0842507492199
1 13.6122801579 5.67878043428 13.2603245554 96.9300648187 185.214154413 -138.772923192 -0.00667142334594 -0.126146487234 0.164246306138
1 10.8969145083 10.4345796626 0.041149870197 68.5863453572 -331.064493938 27.5819262597 -0.0203077928694 0.0486894776199 -0.0170894220335
1 10.813910682 13.4405107683 2.58563734138 -1.47202767029 -91.014963388 -97.4026197589 -0.00719634618385 -0.0231624974323 0.0212156694424
1 13.3958662147 13.5292280883 16.1756052807 -96.3702448943 -11.6005596849 -57.5153221836 0.0216612933822 -0.034985183291 -0.0244376773414
1 13.6284569882 10.6480904046 2.75968528914 50.1009247935 -116.05794759 50.6625878665 -0.0885209102591 0.0630289939293 -0.00763093558467
1 10.8407345535 10.9046483589 5.29472759126 24.0038847163 78.9882672448 -107.596672475 -0.00645647877813 -0.017249642984 0.00325289799595
1 10.8684888779 13.5921669319 8.26360037995 47.8697510499 78.9695796473 149.075951978 -0.0115735051878 -0.000885205554525 -0.00697125136385
1 13.5491659964 13.5662724027 5.47242583257 -3.03278448415 36.9341445436 70.7277551542 -0.0536417426438 -0.0177437754082 0.00913448177579
1 13.2436987422 10.7894414817 8.15534272478 -198.448068303 -1.3592757539 26.5047078035 0.088527696827 0.0355558135387 -0.0276172838984