108
Atom. timestep:0
1 16.2148833224 16.2149056345 16.2149927538 -11.6762674441 -9.44505701814 -0.733124867826 -0.000704518903168 -0.000704518903168 -0.000704518903168
1 5.90958623442e-05 2.7025216051 2.70246146989 5.90107982306 2.15200329191 -3.86151697011 -0.000704518903168 -0.000704518903168 -0.000704518903168
1 2.70254243178 2.70262448432 5.30826361167e-06 4.23467194307 12.4399258163 0.52231998423 -0.000704518903168 -0.000704518903168 -0.000704518903168
1 2.70258683723 2.48006602788e-05 2.70254444483 8.67521690532 2.47155963846 4.43597708667 -0.000704518903168 -0.000704518903168 -0.000704518903168
1 5.94455820276e-05 6.00121423842e-05 5.40504287439 5.93605179117 5.99270782647 4.27893251687 -0.000704518903168 -0.000704518903168 -0.000704518903168
1 16.2149817432 2.70258807973 8.10749825321 -1.83418796668 8.79946625714 -0.16617224691 -0.000704518903168 -0.000704518903168 0.000704518903168
1 2.70243436332 2.70249153823 5.40503846888 -6.57217421797 -0.854683141478 3.83838126496 -0.000704518903168 -0.000704518903168 -0.000704518903168
1 2.70246338526 9.30472039294e-05 8.10744229372 -3.66998062647 9.29621395985 -5.762121296 -0.000704518903168 -0.000704518903168 0.000704518903168
1 0.00011656081404 16.214927525 10.8100285026 11.6475749559 -7.25600464698 2.85876255877 -0.000704518903168 -0.000704518903168 0.000704518903168
1 16.2149708985 2.70250893965 13.5125191672 -2.91865499249 0.885458415406 1.92523092158 -0.000704518903168 -0.000704518903168 0.000704518903168
1 2.70258463733 2.70240222611 10.8099638793 8.45522647736 -9.78589578967 -3.60356781637 -0.000704518903168 -0.000704518903168 0.000704518903168
1 2.70248455934 16.2149242197 13.5124666823 -1.5525728544 -7.58653264485 -3.32326524015 -0.000704518903168 -0.000704518903168 0.000704518903168
1 7.55984328761e-05 5.40500353964 2.52354677039e-05 7.55133686569 0.34545779435 2.5150403807 -0.000704518903168 -0.000704518903168 -0.000704518903168
1 16.2149898381 8.10750821254 2.70243756413 -1.02469541567 0.829760181329 -6.25209296563 -0.000704518903168 0.000704518903168 -0.000704518903168
1 2.70241618152 8.10747626295 16.2149709434 -8.39035395797 -2.36519824637 -2.91416429671 -0.000704518903168 0.000704518903168 -0.000704518903168
1 2.70249034154 5.40497429841 2.70247668456 -0.97435217641 -2.57866551736 -2.34005005721 -0.000704518903168 -0.000704518903168 -0.000704518903168
1 5.76159946454e-05 5.40501689473 5.40501938102 5.75309305412 1.68096648973 1.92959522944 -0.000704518903168 -0.000704518903168 -0.000704518903168
1 16.2149643432 8.10748094421 8.10762090032 -3.57418960822 -1.89707267203 12.0985385159 -0.000704518903168 0.000704518903168 0.000704518903168
1 2.70234434459 8.1075740516 5.40501642008 -15.5740468089 7.41366625593 1.63350164889 -0.000704518903168 0.000704518903168 -0.000704518903168
1 2.70254596733 5.40491479193 8.10748702354 4.58822630429 -8.52931333858 -1.28914003239 -0.000704518903168 -0.000704518903168 0.000704518903168
1 16.2149429142 5.40496506137 10.8100105797 -5.71709080239 -3.50236974756 1.06648020509 -0.000704518903168 -0.000704518903168 0.000704518903168
1 16.2149862275 8.10750918767 13.5125524857 -1.38575366869 0.927273708841 5.25707259066 -0.000704518903168 0.000704518903168 0.000704518903168
1 2.70242662314 8.10746050182 10.8099863851 -7.34619216914 -3.94131201934 -1.35298583158 -0.000704518903168 0.000704518903168 0.000704518903168
1 2.7025540247 5.40491923516 13.5124687874 5.39396346438 -8.08499066371 -3.1127534957 -0.000704518903168 -0.000704518903168 0.000704518903168
1 16.2149772591 10.8100424456 16.2149871154 -2.2825955182 4.25306720659 -1.29696645025 -0.000704518903168 0.000704518903168 -0.000704518903168
1 16.2149814832 13.5125358812 2.702435621 -1.86018979206 3.5966277386 -6.44640623583 -0.000704518903168 0.000704518903168 -0.000704518903168
1 2.70248662718 13.5125353276 16.2149954312 -1.34578794597 3.54127054677 -0.465389740772 -0.000704518903168 0.000704518903168 -0.000704518903168
1 2.70250474477 10.8099781531 2.70251756026 0.465970807979 -2.17617942114 1.74751958272 -0.000704518903168 0.000704518903168 -0.000704518903168
1 16.2149550985 10.8099729499 5.40502308196 -4.49865675193 -2.69650635215 2.29968967684 -0.000704518903168 0.000704518903168 -0.000704518903168
1 16.2149088786 13.5125515478 8.10746580941 -9.12064205103 5.16328731529 -3.41055247024 -0.000704518903168 0.000704518903168 0.000704518903168
1 2.70252363616 13.5124933062 5.40499497323 2.35510960982 -0.660870518987 -0.511183807737 -0.000704518903168 0.000704518903168 -0.000704518903168
1 2.70251228256 10.8099696792 8.10750016773 1.21974961036 -3.02357049255 0.0252793418743 -0.000704518903168 0.000704518903168 0.000704518903168
1 16.2149662174 10.8099483628 10.809941884 -3.38676486533 -5.15521805828 -5.80309830143 -0.000704518903168 0.000704518903168 0.000704518903168
1 6.7588951587e-05 13.5124622136 13.5124476012 6.7503887419 -3.77013238202 -5.23137108436 -0.000704518903168 0.000704518903168 0.000704518903168
1 2.70259273441 13.5125076935 10.8099866248 9.26493493312 0.77786039661 -1.32901320066 -0.000704518903168 0.000704518903168 0.000704518903168
1 2.70246776014 10.8099557151 13.512525982 -3.23249229278 -4.41998307382 2.60670808755 -0.000704518903168 0.000704518903168 0.000704518903168
1 5.40501416987 2.12655864449e-05 16.2149845191 1.40848090595 2.11805225734 -1.55659745313 -0.000704518903168 -0.000704518903168 -0.000704518903168
1 5.40492651107 2.70247198227 2.70244999223 -7.35739970011 -2.81027917967 -5.00928308396 -0.000704518903168 -0.000704518903168 -0.000704518903168
1 8.10749363576 2.70253070438 2.8884444898e-05 -0.627917895929 3.0619317835 2.87993809777 0.000704518903168 -0.000704518903168 -0.000704518903168
1 8.1075229997 1.41141169526e-05 2.7024758447 2.30847635317 1.40290531269 -2.42403649628 0.000704518903168 -0.000704518903168 -0.000704518903168
1 5.40504945807 3.45030384286e-05 5.40502627579 4.93730076168 3.44179744723 2.61907254917 -0.000704518903168 -0.000704518903168 -0.000704518903168
1 5.40500454273 2.70248794278 8.10750869882 0.445766410362 -1.2142281848 0.878388657975 -0.000704518903168 -0.000704518903168 0.000704518903168
1 8.10760527574 2.7025183739 5.40511959342 10.5360798675 1.8288838277 11.9508353218 0.000704518903168 -0.000704518903168 -0.000704518903168
1 8.10750635194 16.2149773577 8.10750768573 0.643700088138 -2.27273722618 0.777079258207 0.000704518903168 -0.000704518903168 0.000704518903168
1 5.40504989129 3.63065070637e-05 10.810020537 4.98062284511 3.6221443096 2.0622021019 -0.000704518903168 -0.000704518903168 0.000704518903168
1 5.40486784353 2.70254662287 13.5125455879 -13.2241530366 4.65378022845 4.56729783151 -0.000704518903168 -0.000704518903168 0.000704518903168
1 8.1074986379 2.70243691975 10.8098685879 -0.127703160362 -6.31653123961 -13.1327013446 0.000704518903168 -0.000704518903168 0.000704518903168
1 8.10747989998 1.94506758007e-05 13.5124997266 -2.00149539752 1.93656119408 -0.0188291385456 0.000704518903168 -0.000704518903168 0.000704518903168
1 5.40500926549 5.40491073119 16.2149923936 0.918042754083 -8.93538743107 -0.76914638347 -0.000704518903168 -0.000704518903168 -0.000704518903168
1 5.40504129019 8.10746595782 2.70255769731 4.12051246852 -3.39571131102 5.76122475028 -0.000704518903168 0.000704518903168 -0.000704518903168
1 8.10751607152 8.10749133088 5.04610755316e-06 1.61565881826 -0.85840581302 0.496104378546 0.000704518903168 0.000704518903168 -0.000704518903168
1 8.10747839589 5.4050153544 2.70255697862 -2.15190460085 1.52693392382 5.68935536814 0.000704518903168 -0.000704518903168 -0.000704518903168
1 5.40503295773 5.40501709279 5.40498115085 3.28726661733 1.70077215333 -1.89342154995 -0.000704518903168 -0.000704518903168 -0.000704518903168
1 5.40499991282 8.10746921271 8.1075064512 -0.0172245940322 -3.07022225033 0.653626812317 -0.000704518903168 0.000704518903168 0.000704518903168
1 8.10752785234 8.10753645621 5.40505611743 2.7937408402 3.6541271903 5.60323670332 0.000704518903168 0.000704518903168 -0.000704518903168
1 8.10758952989 5.40498405206 8.10744676519 8.96149564004 -1.60329991054 -5.31497467755 0.000704518903168 -0.000704518903168 0.000704518903168
1 5.40490433528 5.40502756017 10.8100362476 -9.57497822211 2.7475105377 3.63326259525 -0.000704518903168 -0.000704518903168 0.000704518903168
1 5.40507185892 8.10756108406 13.5125131612 7.17738510918 6.1169125738 1.32462888478 -0.000704518903168 0.000704518903168 0.000704518903168
1 8.10750649712 8.10753821154 10.8100157792 0.658218543883 3.82966026077 1.58642199665 0.000704518903168 0.000704518903168 0.000704518903168
1 8.10755762029 5.40501809345 13.5125086845 5.77053569127 1.80083860101 0.876959993929 0.000704518903168 -0.000704518903168 0.000704518903168
1 5.40502449813 10.8099199973 1.66408582227e-05 2.44130672164 -7.99176601128 1.65557943808 -0.000704518903168 0.000704518903168 -0.000704518903168
1 5.40503251302 13.5125115411 2.70252425022 3.24279574845 1.16261423306 2.41651562713 -0.000704518903168 0.000704518903168 -0.000704518903168
1 8.10755872275 13.5124294811 6.55329267715e-05 5.88078141581 -7.04337864056 6.54478626167 0.000704518903168 0.000704518903168 -0.000704518903168
1 8.10749453805 10.809938354 2.70250386988 -0.537688436553 -6.15609166678 0.37848195426 0.000704518903168 0.000704518903168 -0.000704518903168
1 5.40493169494 10.8099847197 5.40495046495 -6.83901257848 -1.51952667373 -4.96201126778 -0.000704518903168 0.000704518903168 -0.000704518903168
1 5.40506485733 13.5124909845 8.1075222747 6.47722702991 -0.893047998945 2.23597670555 -0.000704518903168 0.000704518903168 0.000704518903168
1 8.10744267647 13.5124691925 5.40503682834 -5.72384639923 -3.07224278983 3.67432800123 0.000704518903168 0.000704518903168 -0.000704518903168
1 8.10752219967 10.8100296498 8.10746477315 2.22847381437 2.97349134116 -3.51417856162 0.000704518903168 0.000704518903168 0.000704518903168
1 5.40498419146 10.8099892332 10.8101145084 -1.58936016769 -1.06817261167 11.4593503848 -0.000704518903168 0.000704518903168 0.000704518903168
1 5.40501984996 13.5125304804 13.5125012631 1.97649000229 3.05654352148 0.134817527014 -0.000704518903168 0.000704518903168 0.000704518903168
1 8.10754727557 13.5124972964 10.8099982976 4.73606312538 -0.26185239101 -0.161730969421 0.000704518903168 0.000704518903168 0.000704518903168
1 8.10747961256 10.8099970047 13.5125122215 -2.03023793835 -0.291023282479 1.23065298348 0.000704518903168 0.000704518903168 0.000704518903168
1 10.8100834293 0.000101896256389 16.2149545732 8.35144061284 10.1811192001 -4.55118665578 0.000704518903168 -0.000704518903168 -0.000704518903168
1 10.8098263112 2.7024933866 2.70255495544 -17.3603770184 -0.669846793135 5.48703736377 0.000704518903168 -0.000704518903168 -0.000704518903168
1 13.5124157743 2.70244465233 1.40821709125e-05 -8.4140663137 -5.54327288358 1.3997107087 0.000704518903168 -0.000704518903168 -0.000704518903168
1 13.512456317 16.2149962412 2.70242985591 -4.35979363334 -0.384385267994 -7.02291539975 0.000704518903168 -0.000704518903168 -0.000704518903168
1 10.8099880182 16.2149310468 5.40497286136 -1.18967628631 -6.90382727994 -2.72237041547 0.000704518903168 -0.000704518903168 -0.000704518903168
1 10.810026975 2.70258740574 8.10754972536 2.70600704859 8.73206738402 4.98104213973 0.000704518903168 -0.000704518903168 0.000704518903168
1 13.5124485934 2.7024484547 5.40500998046 -5.13215675095 -5.163036555 0.989539833976 0.000704518903168 -0.000704518903168 -0.000704518903168
1 13.512450174 16.2149434372 8.10757546523 -4.97409085548 -5.66478491253 7.55502887372 0.000704518903168 -0.000704518903168 0.000704518903168
1 10.8100269713 7.53158408675e-05 10.8099858509 2.70563835808 7.52307766501 -1.40640671827 0.000704518903168 -0.000704518903168 0.000704518903168
1 10.8099689869 2.70253638029 13.512405987 -3.09280283972 3.62952295858 -9.39279196091 0.000704518903168 -0.000704518903168 0.000704518903168
1 13.5124636525 2.70254746467 10.8100298322 -3.62624111989 4.73796040279 2.99172284883 0.000704518903168 -0.000704518903168 0.000704518903168
1 13.5125388927 4.2652677898e-05 13.5124251035 3.89778109317 4.25676138896 -7.48114515698 0.000704518903168 -0.000704518903168 0.000704518903168
1 10.8099682676 5.40494433661 16.214969719 -3.16473494836 -5.57484486931 -3.03660409239 0.000704518903168 -0.000704518903168 -0.000704518903168
1 10.810022819 8.10756943996 2.70243675538 2.29040902738 6.95250220176 -6.33296824962 0.000704518903168 0.000704518903168 -0.000704518903168
1 13.5124859372 8.10754904039 16.2149893726 -1.39777108396 4.91254568997 -1.07124543017 0.000704518903168 0.000704518903168 -0.000704518903168
1 13.5124801929 5.40501670695 2.70240940684 -1.97220107024 1.66218881707 -9.06782244512 0.000704518903168 -0.000704518903168 -0.000704518903168
1 10.8099758565 5.40499521521 5.40502814655 -2.40584751372 -0.486984882455 2.80614821108 0.000704518903168 -0.000704518903168 -0.000704518903168
1 10.8100063937 8.10751164948 8.10745006102 0.647878919315 1.1734541549 -4.98539166945 0.000704518903168 0.000704518903168 0.000704518903168
1 13.5124967243 8.10748620845 5.40497612822 -0.319063991872 -1.37064889875 -2.39568484316 0.000704518903168 0.000704518903168 -0.000704518903168
1 13.5125529195 5.40495037598 8.10746836592 5.30045231145 -4.97090851423 -3.15490133116 0.000704518903168 -0.000704518903168 0.000704518903168
1 10.810004465 5.40497266631 10.8100807455 0.455004151037 -2.7418750709 8.08305937283 0.000704518903168 -0.000704518903168 0.000704518903168
1 10.810081319 8.10742545553 13.5124774207 8.14040874053 -7.44594021551 -2.24942691915 0.000704518903168 0.000704518903168 0.000704518903168
1 13.5125733834 8.10747452029 10.810110064 7.34684577733 -2.53946476084 11.0149015357 0.000704518903168 0.000704518903168 0.000704518903168
1 13.5124835068 5.4049683757 13.5124919346 -1.64081818312 -3.17093628411 -0.798030918573 0.000704518903168 -0.000704518903168 0.000704518903168
1 10.8100307742 10.810013823 16.2149205837 3.08592482526 1.39080973803 -7.95013723132 0.000704518903168 0.000704518903168 -0.000704518903168
1 10.809962126 13.5125148777 2.70248482797 -3.77889165 1.49627478623 -1.52570955104 0.000704518903168 0.000704518903168 -0.000704518903168
1 13.5124810165 13.512443719 3.20599198275e-05 -1.88984330196 -5.61959345221 3.1974855887 0.000704518903168 0.000704518903168 -0.000704518903168
1 13.5124951058 10.8099890648 2.70253702517 -0.480914840333 -1.08501608787 3.6940106963 0.000704518903168 0.000704518903168 -0.000704518903168
1 10.809985189 10.8100931472 5.4049495054 -1.47259507618 9.32322482277 -5.05796598712 0.000704518903168 0.000704518903168 -0.000704518903168
1 10.8099536743 13.5125931158 8.10751836813 -4.62406559708 9.3200866936 1.84531939851 0.000704518903168 0.000704518903168 0.000704518903168
1 13.5124698553 13.5125249425 5.40491388665 -3.00595868716 2.50275788827 -8.61984154711 0.000704518903168 0.000704518903168 -0.000704518903168
1 13.5125352336 10.8100296102 8.10751870264 3.53186717679 2.96952670369 1.87876988428 0.000704518903168 0.000704518903168 0.000704518903168
1 10.8100190706 10.8099525389 10.8099816227 1.9155637087 -4.73760686636 -1.82922374888 0.000704518903168 0.000704518903168 0.000704518903168
1 10.8100262439 13.5124579229 13.5125075942 2.63289859868 -4.19920533739 0.767930102451 0.000704518903168 0.000704518903168 0.000704518903168
1 13.5125565244 13.5125821818 10.8099659697 5.66094997604 8.22668403097 -3.39452254491 0.000704518903168 0.000704518903168 0.000704518903168
1 13.5125014198 10.8100108647 13.5124815074 0.150490213749 1.09497681364 -1.84075835538 0.000704518903168 0.000704518903168 0.000704518903168
108
Atom. timestep:0.997765006386
1 16.2034283743 16.2055174193 16.2139919704 -10.2267443976 -8.47033704902 -1.38759212525 0.00177459271674 0.00141239908951 -0.000415295223076
1 0.0058363484184 2.70473556045 2.69799205905 5.0116341567 1.90562103599 -4.86243442794 -0.0011267450549 -0.000544591613129 -0.0001333889005
1 2.70651182017 2.71432049991 0.000518183317477 2.97298317506 9.44692124048 0.30220030003 -0.00136162835305 -0.00299280123661 -0.00032958634884
1 2.71139016402 0.00268113056571 2.70723567456 8.23587743494 2.67838758104 4.46925960899 -0.00100870204562 -0.000117019943759 -0.000544891290254
1 0.00566757134301 0.00618513235488 5.40949403966 4.45514305032 5.91012204414 4.04165493376 -0.00156921575622 -0.000438457682687 -0.000802421047528
1 16.2122890643 2.71130373951 8.10767102897 -3.72951193804 7.78992297665 0.888754905748 -0.00094033585928 -0.00142381238631 0.000861103158288
1 2.69603379799 2.70250735299 5.40897324177 -5.50089929294 1.13629296505 3.61451459179 0.0013003023043 0.00109237609236 -0.000594121004107
1 2.69886708909 0.00932148620627 8.10126225222 -3.00029475451 8.28770166661 -6.17761910776 0.000942846265628 -0.00144292782086 0.000337560244232
1 0.0119176032979 16.2077737886 10.8128414168 11.2748906501 -6.21099298285 2.30298749376 -0.000973391603962 0.00141611983452 -0.000786111272415
1 16.2116863174 2.70332117003 13.5142966954 -3.17704805564 0.508308697964 1.63024194396 0.000467285593659 -0.000433376495013 -0.000143833084379
1 2.71100765618 2.69234252627 10.8065728754 7.54472830938 -9.76262989974 -2.95099191345 -0.0013731706124 0.000706635000403 0.000531663719115
1 2.70072791396 16.2072353998 13.5091026105 -1.84475424825 -7.06056418215 -2.77400688459 3.85102480284e-05 0.00108827136054 0.0009654579735
1 0.0074682698933 5.40509160618 0.00249481888885 6.35558524545 -0.291805208815 1.94071536582 -0.00153118652281 -0.000407033146597 -0.000809004679166
1 16.2134160141 8.10822604024 2.69567685538 -2.22069678429 0.574158384187 -6.93020867202 -0.000640620187781 -0.000145296219443 0.000140570151245
1 2.69423795616 8.10484573561 16.2117569619 -7.01136937465 -2.91902157917 -3.28386928295 0.00169794823994 -0.000246749050395 0.00013271268694
1 2.70198110894 5.4023996701 2.70022827564 0.208188304291 -2.0189715793 -1.65545668892 0.000767420683904 0.000882689223256 0.000863281126615
1 0.00543297768688 5.40652866733 5.40696392325 4.3604920313 1.33369851024 1.52674341934 -0.00133365169662 -0.00015977394574 -0.000689907514779
1 16.2107063284 8.10524604264 8.11971413757 -4.8219749032 -2.76190759959 11.2477495377 -0.000351330924921 -0.00057081096957 -0.00136608586548
1 2.68694571616 8.11474722799 5.40684826497 -14.3155334625 6.16155757693 2.05146565283 0.00159352566595 -0.00142805668077 0.000222170333463
1 2.70753863033 5.39622825741 8.10587501672 5.013343312 -8.16487376233 -1.76294913875 -0.000309217497883 0.000967336173828 3.41586878394e-05
1 16.2091482233 5.40093439358 10.8117402088 -5.11695668147 -4.62601794537 2.56152421037 0.00114936909503 -0.000572228913236 0.00083475178671
1 16.2132109916 8.10819542819 13.5183459536 -2.15425719668 0.127556494809 6.04362648331 -0.000378420002339 -0.000693419891627 -3.40211220102e-05
1 2.69467682133 8.10344710355 10.8089681566 -7.73096204158 -3.98433868098 -0.382105220062 0.000349210179466 0.000108738191458 0.000748993097295
1 2.70778455905 5.39688759909 13.5086253665 4.4008821935 -7.10729525645 -4.50440875298 -0.00120474760298 0.00143302393992 -0.000452566856056
1 16.2120325194 10.814577496 16.2135914729 -3.4714342866 4.68228886932 -1.31325380274 -0.000312402636084 6.01153190714e-06 0.000216379717077
1 16.2129613103 13.516767313 2.69595517904 -1.93087058051 4.63236484751 -5.7298742339 0.000303223680554 0.0001309595456 0.00123212173849
1 2.70122547729 13.5165523351 16.2145280832 -0.765640717261 4.11236105215 -0.27401745904 0.000743419382332 -0.000230718395339 0.000316555041196
1 2.7027664863 10.8076249395 2.7041243881 -0.151531143936 -2.29701795376 1.03764979727 -0.000512409668088 0.000230475848644 -0.000841185859756
1 16.209995401 10.8073426776 5.40749237262 -5.28821833427 -2.14043071341 2.4930398123 -0.000156434277937 0.000732838676889 -0.000100124491244
1 16.2059288033 13.5181717609 8.10341123339 -7.89149722448 5.67567074691 -4.61127304663 0.00162582341055 -0.000282270351244 -0.000371915279285
1 2.70514173716 13.5119330193 5.40454080857 2.63420719674 -0.378007274356 -0.226817935652 -0.00016380606695 0.000211937970739 0.000311079248007
1 2.70383631383 10.8069311322 8.10796551496 1.27259795575 -2.65376580155 1.0591850664 -0.000177333773652 0.000615695822804 0.000593850220075
1 16.2112570644 10.8050742742 10.8044721317 -3.57720363232 -3.91253056546 -4.71152351058 0.000467880535076 0.00131476350738 0.000947756991343
1 0.00706041445413 13.5083205673 13.5068443531 6.65809059025 -4.55290255872 -5.75116006867 -0.000731735102434 -0.000346629521798 6.75981210721e-05
1 2.71219537499 13.5133384709 10.8080959497 9.43096536119 0.591643865703 -2.80439850085 -0.000553516184363 -0.000417015029974 -0.000996494540311
1 2.69877653453 10.8054069271 13.5154824119 -3.88867953814 -4.36941028872 3.12843978849 7.73829872574e-05 0.000396009703703 6.81174029462e-06
1 5.40685166676 0.00222036442532 16.2130830706 2.20015160763 2.08852193413 -2.21916463309 0.000238721894132 -0.000234132363064 -0.000225771219123
1 5.39785591345 2.6997384923 2.69777171985 -5.94515329299 -2.4206588416 -3.48986585249 0.00157765943661 0.000448830484156 0.00162629796141
1 8.10683456394 2.70610412228 0.00297281133414 -0.760360791823 3.83410696753 2.58298706983 -0.000132786174622 1.07079559378e-05 -0.000622154066178
1 8.10961409555 0.00143359051211 2.69982635543 1.58365916953 1.36483183119 -2.66235234685 -0.00063648566086 -9.87375843845e-05 0.000159131305964
1 5.41056392771 0.00362259002889 5.40812767808 5.95634327833 3.72647645315 3.4793474028 0.000280329379311 9.71628431589e-05 0.000218600551865
1 5.40599997494 2.70168481258 8.10849377335 1.71537472846 -0.0440915117742 0.818721498433 0.000709310877769 0.000843244950118 -0.000346734307151
1 8.11793878977 2.70425048562 5.41716808315 9.19865552597 1.31146559838 11.4211876677 -0.00164569238858 -0.000588586074543 -0.00108380857039
1 8.10840311737 16.2125981403 8.10828330789 1.28787189429 -2.29266470748 0.678673732719 0.000426078966755 0.000226171161352 -0.000144152964473
1 5.41028152234 0.00345855650943 10.8120297739 5.24044119484 2.87899808861 1.76512843831 -0.000190556516398 -0.00071207204399 -0.000346553695672
1 5.39218765539 2.7074950542 13.5170923126 -10.8025330239 4.68639379229 4.00359925334 0.00257527961372 -0.000670491182942 -0.000855999742216
1 8.10723157355 2.69616916103 10.7969567276 -0.799831546648 -5.40567377413 -11.6670850689 -0.000724999105685 0.00134248662732 0.00181902232332
1 8.10580547832 0.00211813885544 13.5124264338 -1.02108283673 2.27169159791 0.0446621472242 0.00076316831936 0.000146638629226 0.000228981407851
1 5.40669501979 5.39633364405 16.2142408333 2.5184155304 -7.06213700968 -0.643493205999 0.000705309737609 0.00213231089097 0.000156973914845
1 5.40925336539 8.10341888672 2.70836824265 3.67298719812 -4.6909349076 5.42730360799 -0.000932120268476 -0.000490084407395 -0.000655823980659
1 8.10960359357 8.10582976534 0.00060402751126 2.65757655989 -2.59235517604 0.615139343881 0.000533882017265 -0.000841746425915 -6.34351987428e-05
1 8.10503433051 5.4070569231 2.70848037444 -2.52428164593 2.52379864641 5.9576849279 0.000130249596335 0.000354994069414 -0.000122765788786
1 5.40831518023 5.40698186969 5.40292414899 2.89753739502 1.98039251096 -2.01205729365 -0.000575923580314 -0.000181520475055 0.00022011674474
1 5.40486715368 8.10404721971 8.10849913634 -0.266560685684 -3.51066005669 1.30766219832 -0.000121701793216 0.000145148354151 0.000236035009508
1 8.11070999162 8.11174052711 5.41111619233 3.54812731649 4.67421869938 6.12262192642 0.000275491432409 0.000302838173856 -0.00026546187951
1 8.11650151327 5.40333371505 8.10222662828 8.06824355957 -1.2759694205 -4.27637812486 -0.00130462659524 0.000645650744226 0.00146895191933
1 5.39565664403 5.40792430472 10.8135408266 -7.79614528958 2.85378449058 3.08299763625 0.00205770548345 -0.000185404958218 -0.000577947143764
1 5.4121227831 8.11349265664 13.5138240943 6.24512236065 4.94612986378 1.40210529064 -0.00118454609904 -0.00142941058317 0.000149514122345
1 8.10880731093 8.11132406747 10.8113161008 1.9690757021 3.35596062109 0.708838506883 0.000557517488658 -0.000642306660565 -0.000717280441366
1 8.11295110077 5.40681702588 13.5127468899 4.26568569988 1.47687012485 -0.7171409 -0.0015021192969 -0.000499547064983 -0.00101749065971
1 5.40766213824 10.8017537785 0.00214695411017 2.44027000667 -7.75110586906 2.68879351693 -0.000460207560483 0.000803550165375 0.000534656588477
1 5.40882218899 13.5136883183 2.70505831236 4.21866052466 1.07146638538 2.31969018049 0.000229544571258 -0.000181989577066 -0.000434338843333
1 8.11349124105 13.5055016325 0.00682651778517 5.72815416966 -6.22480205877 6.41762789443 -0.000389799392118 0.00102807041848 -0.000741990319842
1 8.10755289363 10.8033137601 2.70291492809 0.688105739378 -6.75821082713 0.456051002556 0.000528489153153 0.000161863358317 4.00485750088e-05
1 5.39769657373 10.8079663311 5.39972566675 -7.18387137414 -2.58905528572 -4.99136022131 0.000405680846567 -0.000517217754926 0.000591686623796
1 5.41171276856 13.5116766234 8.11021280277 6.22656058986 -0.695801903866 3.10159082322 -0.000807260023284 0.000119841497259 0.000287435766391
1 8.10146101211 13.5090564077 5.40898647697 -5.9919201561 -3.54721817061 3.73146630969 0.000193891189574 5.9050643125e-05 -0.000574345186469
1 8.10997219616 10.8130761761 8.10383911238 2.34507295059 2.87531903137 -3.32606210332 -0.000343286899609 -0.000337656202891 0.000583017632304
1 5.40297724752 10.808834765 10.8215116851 -2.2927626364 -1.3906325836 10.462640348 -9.81760741481e-05 -0.000275087472289 -0.00144329135159
1 5.40721762073 13.5160583138 13.5128630821 2.45938843933 3.60277750476 0.919688505096 0.000241997561594 -0.000271214860078 0.000706438761175
1 8.11235671147 13.5124044738 10.8100291948 4.73861051253 0.0353783694508 0.457272039021 -0.000176789343911 6.1853497105e-05 0.000535258353733
1 8.10603245629 10.8095228932 13.5137558118 -0.235365039775 -0.617111071495 1.23839108281 0.00155663085892 -8.31173587615e-05 -1.94743428286e-05
1 10.8180957777 0.0103412095333 16.2095901175 6.90658989228 9.52899414399 -6.24791670682 -0.00151469245715 -0.00118802063206 -0.000801530869523
1 10.7928103533 2.70197184347 2.70835532356 -15.5253892275 -0.22097328226 5.9093541866 0.00212109616279 0.000354329648686 -8.90235668474e-05
1 13.5040283716 2.69682354388 0.00145117907555 -7.83370476436 -5.03534806437 1.34928949077 0.00086968936224 0.00100090651932 -0.000185305815748
1 13.5078670622 16.2146677206 2.69532554974 -4.62385350636 0.00635841942893 -6.51820602704 0.000116500576925 0.000485777657419 0.000990126935351
1 10.8085842194 16.2076843496 5.40238335725 -1.68838909171 -7.10922162287 -2.12761035708 -0.000314103374602 0.000500085549736 0.000629300860667
1 10.813011199 2.71107682894 8.11296771403 3.4356848845 7.45094785824 5.51099343753 0.000494369331026 -0.00147079883724 -0.00020232274592
1 13.507155076 2.69674895257 5.40601340333 -5.15709568286 -6.00277087351 0.588124918831 0.000348238384015 -5.36094562907e-05 -0.000671482464627
1 13.5073727163 16.2093826722 8.11539777234 -4.73006194605 -4.59712641127 7.5166174135 0.000634617961713 0.00146122162929 -0.000707803009978
1 10.8125168742 0.00790901365645 10.8091454017 1.96302088597 7.60941649925 0.000769832817211 -0.000685951110334 -0.000613243750144 0.000892982281576
1 10.8062497197 2.70655920997 13.5027543434 -4.3717052993 4.05878086275 -9.31506994327 -0.000584068197569 -0.000249359924679 0.000761071385212
1 13.5091715989 2.70753146525 10.813080222 -2.38254248403 4.70991079371 2.77133836947 0.00117569510824 -0.000629895783603 -0.000483710912512
1 13.5166810088 0.00429734232744 13.5046964755 4.17228069684 3.79063600622 -7.63504697901 -0.000148578788029 -0.000736623942099 0.0003581195194
1 10.8066816322 5.39936757443 16.2122880956 -3.23274052613 -5.27353505847 -2.02936875639 0.000182821227714 0.000485803411211 0.000757561598555
1 10.8125908446 8.11448380359 2.69577081957 2.59489895241 6.30067367414 -6.54586146874 -0.000177599849087 -0.000961423250919 0.000469393251956
1 13.5107412267 8.11247907418 16.2137613024 -1.92723456448 4.53541722689 -1.49457450638 -1.60096379929e-05 -0.000652019296265 -0.000296804073367
1 13.5100747062 5.40634979173 2.69322706445 -2.82942438929 0.535514986866 -8.6506804417 -0.00032613779005 -0.00105781176572 0.000944814091654
1 10.808020586 5.40453518712 5.40796732844 -0.984644025265 -0.103776727019 2.50759065036 0.0011868762897 0.000542601914388 -0.000800400228988
1 10.8111705484 8.10870214123 8.10247744607 2.1416577619 1.12913580477 -4.37789100041 0.0011493011589 -0.000108217835312 0.000939028678281
1 13.5118391816 8.10598988279 5.40214584254 -0.957665301177 -1.63558198528 -3.08972845793 -0.000210561216458 -0.000116043581451 -7.3574019211e-05
1 13.5180090853 5.39983496693 8.10389908993 5.00917573736 -4.6062900328 -3.68037844631 -0.000892348673583 0.000929375073304 0.000155547133769
1 10.8103301602 5.40248229391 10.8180579719 0.219582122093 -1.70100194765 6.93459066705 -5.59510245899e-05 0.00106010793493 -0.00159616265184
1 10.8183232707 8.09985388556 13.5103324998 7.75715508296 -7.08639234614 -1.78845283917 -0.00086471496328 0.000876250985311 0.000485681047719
1 13.5200480727 8.10473106975 10.8210739593 6.90021937999 -3.03188765071 10.048800513 -0.00102034255988 -0.000300946354469 -0.00142296202971
1 13.5110054698 5.40184229789 13.5119959398 -0.965061033469 -3.05770312459 0.471230840161 0.000662594851264 6.62181133995e-05 0.00130569365703
1 10.8134789654 10.8111141361 16.2066017455 3.56136147673 0.544212106347 -8.20748108664 -0.000118154760175 -0.000663505516995 0.000480572881871
1 10.8056169071 13.5140097205 2.70059554271 -4.82893002429 1.47807522248 -2.42691697818 -0.00031655327929 2.37459369619e-05 -0.000570349134636
1 13.5099043616 13.5064395501 0.00312761991104 -3.29592840618 -6.01366528469 2.4652710804 -0.000599905928261 0.000312128744342 -0.000925888804127