108
Atom. timestep:0
1 16.2146277863 16.2145756516 0.00028980902637 -37.2298800696 -42.4433503308 28.9723960779 -0.000704518903168 -0.000704518903168 -0.000704518903168
1 0.00171004552392 2.70104071567 2.70347945376 170.996044924 -145.936937968 97.9368685205 -0.000704518903168 -0.000704518903168 -0.000704518903168
1 2.70219699695 2.70145963425 16.2134759108 -30.3088112419 -104.04508026 -152.417426384 -0.000704518903168 -0.000704518903168 -0.000704518903168
1 2.7017793186 0.00123536468776 2.70211517527 -72.0766459633 123.527961612 -38.4909789673 -0.000704518903168 -0.000704518903168 -0.000704518903168
1 16.2148984324 0.00173606372974 5.40705693306 -10.1652669388 173.597865489 205.684798261 -0.000704518903168 -0.000704518903168 -0.000704518903168
1 9.38744393367e-05 2.70089314522 8.10866674822 9.37893750005 -160.693983495 116.68332718 -0.000704518903168 -0.000704518903168 0.000704518903168
1 2.70238853645 2.70292468677 5.40486562866 -11.1548612759 42.4601706088 -13.4456405757 -0.000704518903168 -0.000704518903168 -0.000704518903168
1 2.70388193039 0.00103619448515 8.1097961267 138.184531386 103.610941478 229.621175117 -0.000704518903168 -0.000704518903168 0.000704518903168
1 16.2137455109 0.000639218597344 10.8108022927 -125.457419632 63.9133529517 80.2377782091 -0.000704518903168 -0.000704518903168 0.000704518903168
1 16.2100940568 2.70003345967 13.5132336576 -490.602827821 -246.662537529 73.3742630285 -0.000704518903168 -0.000704518903168 0.000704518903168
1 2.70160766502 2.70417422448 10.8113256004 -89.2420035179 167.413940635 132.568546141 -0.000704518903168 -0.000704518903168 0.000704518903168
1 2.70061660615 0.000742237465688 13.5129979393 -188.347890396 74.2152397202 49.8024388383 -0.000704518903168 -0.000704518903168 0.000704518903168
1 0.00187477820583 5.40408678718 16.2117261742 187.46931301 -91.3297882256 -327.391082776 -0.000704518903168 -0.000704518903168 -0.000704518903168
1 16.212633084 8.10826214548 2.70302648295 -236.700107537 76.2230535552 52.639787988 -0.000704518903168 0.000704518903168 -0.000704518903168
1 2.70305132356 8.1076484847 0.000276277646981 55.1238494694 14.8569764074 27.6192581478 -0.000704518903168 0.000704518903168 -0.000704518903168
1 2.70379941126 5.40354953288 2.70245764631 129.932618886 -145.055216973 -4.24387542904 -0.000704518903168 -0.000704518903168 -0.000704518903168
1 16.2143687184 5.40522571402 5.40409173307 -63.1366617672 22.5628951806 -90.8351991458 -0.000704518903168 -0.000704518903168 -0.000704518903168
1 16.2142813486 8.10884985447 8.10769093293 -71.8736436194 134.993952235 19.1017989952 -0.000704518903168 0.000704518903168 0.000704518903168
1 2.70164433344 8.1064037911 5.40225547666 -85.5751622874 -109.612382603 -274.460838323 -0.000704518903168 0.000704518903168 -0.000704518903168
1 2.70118258661 5.40560548609 8.1070803903 -131.749844115 60.5401018702 -41.9524637571 -0.000704518903168 -0.000704518903168 0.000704518903168
1 16.2139459078 5.40540864076 10.80925977 -105.417727764 40.8555696896 -74.0144882415 -0.000704518903168 -0.000704518903168 0.000704518903168
1 16.2137626356 8.10769931602 13.5144133573 -123.744948999 19.9401083728 191.34423678 -0.000704518903168 0.000704518903168 0.000704518903168
1 2.69957324723 8.10684874337 10.8077795205 -292.683781416 -65.117156235 -222.039445639 -0.000704518903168 0.000704518903168 0.000704518903168
1 2.70312590569 5.40588880843 13.513309957 62.5820626674 88.8723358281 81.0042054898 -0.000704518903168 -0.000704518903168 0.000704518903168
1 16.2141541175 10.8100040841 0.00107046874603 -84.5967568989 0.416915992767 107.038367544 -0.000704518903168 0.000704518903168 -0.000704518903168
1 2.24241420041e-06 13.5134638811 2.70369017685 0.215735045066 96.3966201564 119.009177823 -0.000704518903168 0.000704518903168 -0.000704518903168
1 2.7020983168 13.513763587 16.2145108886 -40.1768261166 126.367207627 -48.9196507198 -0.000704518903168 0.000704518903168 -0.000704518903168
1 2.703101674 10.81270505 2.70363759026 60.1588929926 270.51350194 113.750519046 -0.000704518903168 0.000704518903168 -0.000704518903168
1 0.000217307152254 10.8110455669 5.40566755721 21.7222087127 104.56519933 66.7472145694 -0.000704518903168 0.000704518903168 -0.000704518903168
1 0.000485650363778 13.5121101571 8.10404405942 48.5565296935 -38.9757869571 -345.58554926 -0.000704518903168 0.000704518903168 0.000704518903168
1 2.70486700663 13.5140726978 5.40179543882 236.692154783 157.278283938 -320.464622518 -0.000704518903168 0.000704518903168 -0.000704518903168
1 2.70326362739 10.8104663979 8.10687859738 76.3542322789 46.6482984298 -62.1317556357 -0.000704518903168 0.000704518903168 0.000704518903168
1 16.2138894676 10.8099239928 10.8117985935 -111.061747115 -7.59221662203 179.86785539 -0.000704518903168 0.000704518903168 0.000704518903168
1 16.2143901472 13.5138878554 13.5108443807 -60.9937819576 138.794041969 -165.553421925 -0.000704518903168 0.000704518903168 0.000704518903168
1 2.70443335025 13.5132848736 10.8109881286 193.326517884 78.4958639106 98.8213687664 -0.000704518903168 0.000704518903168 0.000704518903168
1 2.70572133462 10.8096190131 13.5103906392 322.124953107 -38.0901828057 -210.9275731 -0.000704518903168 0.000704518903168 0.000704518903168
1 5.40368927797 16.2136131949 0.00241673357455 -131.080708967 -138.689011128 241.664849535 -0.000704518903168 -0.000704518903168 -0.000704518903168
1 5.40571556282 2.70094839188 2.70332097169 71.5477751245 -155.169317252 82.0886620457 -0.000704518903168 -0.000704518903168 -0.000704518903168
1 8.10736915327 2.70426329397 16.214640537 -13.0761663949 176.320889546 -35.954809711 0.000704518903168 -0.000704518903168 -0.000704518903168
1 8.10626949765 0.00165394072231 2.70201222723 -123.041728271 165.385564799 -48.7857830128 0.000704518903168 -0.000704518903168 -0.000704518903168
1 5.40308338912 0.00146187995199 5.40481929347 -191.669592788 146.17948789 -18.0791596898 -0.000704518903168 -0.000704518903168 -0.000704518903168
1 5.40449598615 2.70257353501 8.10945415716 -50.4098906469 7.34499471072 195.424220889 -0.000704518903168 -0.000704518903168 0.000704518903168
1 8.10834947215 2.70019341429 5.40741099743 84.9557211606 -230.667076397 241.091234601 0.000704518903168 -0.000704518903168 -0.000704518903168
1 8.10696378545 16.2143514718 8.10803701365 -53.6129482055 -64.8613295101 53.7098713856 0.000704518903168 -0.000704518903168 0.000704518903168
1 5.40311549276 0.00137160116032 10.808463249 -188.459229374 137.15160878 -153.666588546 -0.000704518903168 -0.000704518903168 0.000704518903168
1 5.40944792275 2.70291765405 13.512955323 444.783766266 41.7568986144 45.5408086835 -0.000704518903168 -0.000704518903168 0.000704518903168
1 8.10957023099 2.70197339211 10.812057144 207.031603873 -52.6692945526 205.722906684 0.000704518903168 -0.000704518903168 0.000704518903168
1 8.10707336637 16.2137182512 13.5130493421 -42.6548559418 -128.183383918 54.9427161569 0.000704518903168 -0.000704518903168 0.000704518903168
1 5.40514372652 5.40678787579 0.00162755792811 14.3641451939 178.779071245 162.747285396 -0.000704518903168 -0.000704518903168 -0.000704518903168
1 5.40420047431 8.10893839293 2.70378633085 -79.9610750144 143.847798299 128.624577593 -0.000704518903168 0.000704518903168 -0.000704518903168
1 8.10496992703 8.10730267007 0.000892056794689 -252.998788789 -19.7244861343 89.1971725244 0.000704518903168 0.000704518903168 -0.000704518903168
1 8.10517632738 5.40388161164 2.70203875796 -232.358753804 -111.847341325 -46.1327098342 0.000704518903168 -0.000704518903168 -0.000704518903168
1 5.40242211826 5.40542113588 5.40595902349 -257.796679151 42.1050812889 95.8938420525 -0.000704518903168 -0.000704518903168 -0.000704518903168
1 5.40690077863 8.1087545543 8.1066524495 190.06935525 125.463935253 -84.7465434415 -0.000704518903168 0.000704518903168 0.000704518903168
1 8.10682554537 8.10771928223 5.40504244978 -67.4369563716 21.9367292239 4.23647196816 0.000704518903168 0.000704518903168 -0.000704518903168
1 8.10880116041 5.40759420359 8.10856263452 130.124546734 259.411851321 106.271958162 0.000704518903168 -0.000704518903168 0.000704518903168
1 5.40320002636 5.40831067756 10.810435791 -180.005869147 331.05924748 43.5876016704 -0.000704518903168 -0.000704518903168 0.000704518903168
1 5.40611081947 8.10876862814 13.5119962391 111.073440168 126.871319254 -50.3675836959 -0.000704518903168 0.000704518903168 0.000704518903168
1 8.10471114642 8.10967554341 10.8107734364 -278.876849374 217.562846452 77.3521501514 0.000704518903168 0.000704518903168 0.000704518903168
1 8.10787080016 5.40516618237 13.511630533 37.0885218052 16.6097307111 -86.9381900072 0.000704518903168 -0.000704518903168 0.000704518903168
1 5.40486058321 10.8098637093 16.2135121822 -13.9501856509 -13.6205671179 -148.790282921 -0.000704518903168 0.000704518903168 -0.000704518903168
1 5.4057445533 13.5152566451 2.70344472298 74.4468232108 275.673013812 94.4637913385 -0.000704518903168 0.000704518903168 -0.000704518903168
1 8.10820902934 13.5114018088 0.000225607297648 70.9114402771 -109.810615556 22.5522232469 0.000704518903168 0.000704518903168 -0.000704518903168
1 8.10580070947 10.8088691409 2.7034870316 -169.920545163 -113.07739928 98.6946527644 0.000704518903168 0.000704518903168 -0.000704518903168
1 5.40197008477 10.8104308845 5.40321387589 -303.000027596 43.0969532209 -178.62091665 -0.000704518903168 0.000704518903168 -0.000704518903168
1 5.40347844755 13.5103164868 8.1050162706 -152.163750273 -218.34280757 -248.364431967 -0.000704518903168 0.000704518903168 0.000704518903168
1 8.10711377401 13.5116269506 5.40622381986 -38.6140921513 -87.2964359806 122.373479326 0.000704518903168 0.000704518903168 -0.000704518903168
1 8.10930104388 10.8090921482 8.10866824735 180.112892733 -90.7766736988 116.833240847 0.000704518903168 0.000704518903168 0.000704518903168
1 5.40695177706 10.8084368078 10.8111347489 195.169198497 -156.310715051 113.483398862 -0.000704518903168 0.000704518903168 0.000704518903168
1 5.4037387222 13.513590815 13.5109364716 -126.13628558 109.090004847 -156.344331672 -0.000704518903168 0.000704518903168 0.000704518903168
1 8.10741920721 13.5119741606 10.8099024001 -8.07077246349 -52.5754360498 -9.75147909226 0.000704518903168 0.000704518903168 0.000704518903168
1 8.10847301522 10.8101976216 13.5117680908 97.310027424 19.7706666991 -73.1824129026 0.000704518903168 0.000704518903168 0.000704518903168
1 10.8089612071 16.2139618346 16.2134109734 -103.870787024 -103.825045163 -158.911162618 0.000704518903168 -0.000704518903168 -0.000704518903168
1 10.8096414979 2.70393866589 2.7018505369 -35.8417068553 143.858082034 -64.954816265 0.000704518903168 -0.000704518903168 -0.000704518903168
1 13.5137359871 2.70219107019 16.2135269441 123.607214791 -30.9014875483 -147.314097151 0.000704518903168 -0.000704518903168 -0.000704518903168
1 13.5149007222 0.00116877255255 2.70412550773 240.080728004 116.868748133 162.542265925 0.000704518903168 -0.000704518903168 -0.000704518903168
1 10.8081193919 0.00175317244171 5.40370831307 -188.052304935 175.308736676 -129.177198121 0.000704518903168 -0.000704518903168 -0.000704518903168
1 10.8104225133 2.7026812442 8.10817454518 42.2598342073 18.1159137652 67.4630236618 0.000704518903168 -0.000704518903168 0.000704518903168
1 13.5119165666 2.70250183646 5.40454689554 -58.3348284146 0.175139826613 -45.3189520621 0.000704518903168 -0.000704518903168 -0.000704518903168
1 13.5124882729 16.214196541 8.10741514051 -1.16420117763 -80.3544073272 -8.47744256486 0.000704518903168 -0.000704518903168 0.000704518903168
1 10.8099837713 0.00172123246631 10.8084630407 -1.61436007604 172.114739156 -153.687426086 0.000704518903168 -0.000704518903168 0.000704518903168
1 10.8072528065 2.70255189788 13.5115561779 -274.710844954 5.18128170795 -94.373706734 0.000704518903168 -0.000704518903168 0.000704518903168
1 13.510943945 2.70234969941 10.8090669517 -155.596995718 -15.0385655103 -93.2963243016 0.000704518903168 -0.000704518903168 0.000704518903168
1 13.5110818861 16.2140345676 13.5107177759 -141.802887036 -96.5517504618 -178.213901771 0.000704518903168 -0.000704518903168 0.000704518903168
1 10.8109176341 5.40551624147 16.2149694249 91.7719158214 51.6156401815 -3.06602109377 0.000704518903168 -0.000704518903168 -0.000704518903168
1 10.8099726561 8.1057178883 2.70077753363 -2.7258795714 -178.2026622 -172.255142668 0.000704518903168 0.000704518903168 -0.000704518903168
1 13.5147720562 8.106268205 16.2146885019 227.214121584 -123.170992602 -31.1583161444 0.000704518903168 0.000704518903168 -0.000704518903168
1 13.5146968838 5.4065704489 2.70233828971 219.696888903 157.036382276 -16.1795348448 0.000704518903168 -0.000704518903168 -0.000704518903168
1 10.8131923116 5.40421252949 5.40524151246 319.239663566 -78.7555565498 24.1427390025 0.000704518903168 -0.000704518903168 -0.000704518903168
1 10.8089417092 8.10897524529 8.10947174706 -105.820569504 147.533034394 197.183210944 0.000704518903168 0.000704518903168 0.000704518903168
1 13.5136550955 8.10549498706 5.40697914095 115.518056261 -200.492786543 197.905587502 0.000704518903168 0.000704518903168 -0.000704518903168
1 13.5106544315 5.40486829889 8.10864279199 -184.548346326 -13.1786170662 114.287704659 0.000704518903168 -0.000704518903168 0.000704518903168
1 10.8115478828 5.40458623585 10.809797416 154.796780921 -41.384920665 -20.2498929949 0.000704518903168 -0.000704518903168 0.000704518903168
1 10.8095614024 8.10668910421 13.5131168304 -43.8512517643 -81.081072273 61.6915443262 0.000704518903168 0.000704518903168 0.000704518903168
1 13.5126781473 8.10627772749 10.8104718222 17.8232358551 -122.218744087 47.1907285722 0.000704518903168 0.000704518903168 0.000704518903168
1 13.5137925797 5.40371673429 13.508823931 129.266470705 -128.335077011 -367.598394999 0.000704518903168 -0.000704518903168 0.000704518903168
1 10.8087414246 10.807497237 0.00286051758556 -125.849031241 -250.267792184 286.043250352 0.000704518903168 0.000704518903168 -0.000704518903168
1 10.8097395259 13.5127706167 2.70462022146 -26.038902182 27.0701743455 212.013638112 0.000704518903168 0.000704518903168 -0.000704518903168
1 13.5147631482 13.5108368832 0.00253400762467 226.32332572 -166.303169974 253.392254471 0.000704518903168 0.000704518903168 -0.000704518903168
1 13.512089825 10.8083653713 2.70249627395 -41.0089919343 -163.454360704 -0.38111138295 0.000704518903168 0.000704518903168 -0.000704518903168
1 10.8107066929 10.8079137828 5.40363645906 70.6777989591 -208.613207322 -136.362599856 0.000704518903168 0.000704518903168 -0.000704518903168
1 10.8105117258 13.511253354 8.10690426092 51.1810816028 -124.656097695 -59.5654009095 0.000704518903168 0.000704518903168 0.000704518903168
1 13.5095767116 13.5164154023 5.40347768982 -292.320328596 391.548731246 -152.239523684 0.000704518903168 0.000704518903168 -0.000704518903168
1 13.5102754355 10.8117518914 8.1080075489 -222.447937825 175.197649639 50.7633960552 0.000704518903168 0.000704518903168 0.000704518903168
1 10.809304837 10.8119001713 10.8111913282 -69.5077971633 190.025637609 119.141328105 0.000704518903168 0.000704518903168 0.000704518903168
1 10.8114203131 13.5122403288 13.5106482683 142.03981398 -25.9586176975 -185.164658717 0.000704518903168 0.000704518903168 0.000704518903168
1 13.5104204774 13.5121373113 10.8115628845 -207.943754233 -36.26036097 156.2969529 0.000704518903168 0.000704518903168 0.000704518903168
1 13.5131288277 10.8110383137 13.5114681818 62.8912750855 103.839876737 -103.173311826 0.000704518903168 0.000704518903168 0.000704518903168
108
Atom. timestep:0.997765006386
1 16.1743459418 16.1703250234 0.0279544679714 -45.7176517702 -47.3111895342 25.9081847098 -0.0060268280664 -0.00283965166904 -0.00156442453458
1 0.161214133586 2.57432459701 2.79069175545 133.713549176 -85.1805172527 66.7431718261 -0.035013959716 0.0552512433465 -0.0239492904407
1 2.67907545818 2.60482828863 16.0648431665 -10.2114416563 -80.8206215721 -138.088816722 0.0146320038755 0.020497420698 0.0161815092194
1 2.63045956826 0.118430995614 2.66533275303 -66.1506243519 101.693804988 -33.6496901693 0.0112964668395 -0.0225121910693 0.00293726925705
1 16.2145352543 0.165521870992 5.60398516566 17.303270187 143.358553362 176.087200659 0.0194321954793 -0.0255013307377 -0.0292602611331
1 0.00563690717379 2.55713895689 8.22250582003 -0.837968936034 -108.711654043 110.98560808 -0.00663581430379 0.0444221057177 3.717772086e-05
1 2.68967553096 2.74406841876 5.40159766897 -16.2024860847 39.562901303 17.2223767212 -0.00481603559841 -0.000903241733548 0.024896234222
1 2.82139488037 0.0963030688909 8.31926993556 67.4347665343 79.6106790447 161.665830467 -0.0717091447018 -0.0180117114999 -0.0679412652732
1 16.0934663437 0.0561019666987 10.8777663534 -109.285441676 40.7384682546 41.2274869984 0.0136487202095 -0.0161877711323 -0.0312617402253
1 15.7604008152 2.46326426795 13.5652505377 -356.551158106 -219.405788413 -1.15486768593 0.127632965512 0.0194911135796 -0.0780171401516
1 2.61263029171 2.8706033704 10.9497921774 -87.9328549347 162.818938283 146.308166662 0.00192481560454 -0.00612073413893 0.00579596397635
1 2.52418448175 0.0773284277929 13.5554726626 -154.875867929 77.1090733956 25.2919659108 0.0239821808709 -0.00411605054076 -0.0239956064073
1 0.178499936265 5.31024550063 15.9090717504 150.21522234 -100.050468274 -253.542181716 -0.03790318615 -0.00923056531102 0.0598068770381
1 16.0045995717 8.18367397368 2.75239833028 -148.763756086 77.7764005847 46.5488734223 0.0749075675112 0.00655676998421 0.000205853675427
1 2.75242280105 8.12937149412 0.0329305476456 37.8662800291 34.2914511352 40.7731414853 -0.0140984389818 0.0140676611263 0.00818579547252
1 2.82187240036 5.2617479381 2.68961968308 95.7446557152 -136.514760862 -28.8515128964 -0.0259168570565 0.00524001471911 -0.0179553061874
1 16.1583657205 5.41735122174 5.32493543812 -38.8951642835 -9.19576840635 -57.0861011786 0.0236646585612 -0.0267294974494 0.0256704152614
1 16.1393705177 8.24243029062 8.12099593624 -81.4951431314 131.620335064 1.84328019094 -0.00892756682533 -0.00118162519953 -0.0139481289494
1 2.60860827836 8.00689040886 5.14457628137 -109.363445503 -78.6617840298 -225.500850344 -0.021288931528 0.0254911406806 0.0379110502395
1 2.56954205537 5.46293007914 8.06425910674 -132.04041041 49.5125762454 -44.2713717501 -0.00144454930468 -0.0108803970059 -0.00142896423439
1 16.117155663 5.4379890971 10.7349168459 -76.2280346292 16.3398017723 -80.2606917435 0.0288660971349 -0.0193084904822 -0.0135293316396
1 16.1069223855 8.1317169992 13.6860883567 -70.5993224577 32.8556173581 127.020154219 0.0480398677827 0.0114272235126 -0.0609313160733
1 2.42174179698 8.05236922688 10.6013913298 -247.403266149 -31.9272878187 -172.490120199 0.03854076397 0.0286013720127 0.0444687870627
1 2.76918750482 5.49175151945 13.5847429006 79.0900451397 84.1229540445 50.136108388 0.0225411161118 0.00170420902887 -0.0283885721552
1 16.1479154831 10.8123068481 0.101299499104 -30.3031867671 1.51556069985 88.6713882296 0.0436698993086 -0.00588613720422 -0.0123590174737
1 0.0025091373847 13.6073780121 2.82630914496 7.73233738683 89.1494878943 130.561815739 0.00691219420513 -0.00515134570001 0.01043692606
1 2.65880676555 13.6270742396 16.1668945684 -50.1710709713 87.4109029839 -45.1519646106 -0.00905875768051 -0.0311559800662 0.00266899496767
1 2.74989606185 11.069026658 2.79124035341 14.4394255348 225.848727576 27.1894917119 -0.0463315135603 -0.0392813793492 -0.0832230525663
1 0.0165679535683 10.9087294692 5.46211883373 7.49267341966 76.1560527702 30.8148787186 -0.00901908312767 -0.0350252800408 -0.0372368728746
1 0.0495763729658 13.4804872683 7.78204004666 49.7234790738 -12.7001346483 -275.86358247 0.000429725068072 0.0284544532426 0.0572350563025
1 2.91447091469 13.6779086282 5.10753007814 150.010970444 177.314592248 -236.616427504 -0.0782175109862 0.0164693145845 0.0766593692644
1 2.77008544247 10.8498665102 8.04990731697 43.9337675857 20.8904452536 -45.5908130828 -0.0327172005732 -0.0271263928523 0.014890472824
1 16.1118757687 10.8077136914 10.975662558 -82.3086065864 5.35293427262 131.909497577 0.025999151578 0.00639618073315 -0.0392525682112
1 16.1584684814 13.6429996768 13.3585318774 -47.0717817573 110.87262427 -126.167997559 0.00923415368129 -0.0214049947227 0.0315504672951
1 2.87848645183 13.5843246389 10.8934349007 132.603999456 56.6361249091 47.0531247573 -0.0545586914568 -0.0170034750762 -0.0472635484045
1 2.99878002572 10.7714109287 13.3107704342 234.198583977 -38.3000877289 -178.512079123 -0.0739033045581 0.000877576133504 0.0253095428561
1 5.28275988647 16.0879812597 0.217630613087 -101.017129237 -95.8054053382 158.256397453 0.0237823082108 0.0409000299998 -0.0744432892116
1 5.46685922839 2.56178451685 2.78021801491 37.3753509043 -103.370976825 65.7848979916 -0.0331329229634 0.0478399616262 -0.0145198331408
1 8.09850053702 2.87037248751 16.1849749627 3.50637719183 147.012516248 -12.1749022452 0.0197526380104 -0.0213689045263 0.0269965348316
1 7.99948323336 0.157451256801 2.65430094474 -69.3621990293 135.841178371 -45.9932327768 0.0512484252554 -0.025170954807 0.00142422904998
1 5.22612915288 0.14450189959 5.39870662809 -146.75348639 137.361152687 19.7342176973 0.0379734521852 -0.00611771208433 0.0337584479521
1 5.36204375414 2.72689341893 8.2971178329 -27.8396449309 59.5081033781 168.928103395 0.0165413715455 0.0445465453615 -0.0259499246947
1 8.17734578172 2.49966914473 5.64130240707 29.6391889959 -136.989747977 218.937057805 -0.0576274848043 0.0828808292634 -0.0178013700433
1 8.05093347532 16.1451731114 8.16351269028 -60.5455405557 -77.8670740178 59.4724334899 -0.00541199019141 -0.0108329954744 0.00532983627182
1 5.23802077457 0.13199327797 10.6789765193 -110.711944498 116.925385114 -69.3529007644 0.0760072276292 -0.017635230202 0.0871775892425
1 5.81928239573 2.74242068313 13.5557052498 336.733221037 33.4170500753 34.3806466079 -0.0933583806435 -0.00929193046132 -0.0136878975841
1 8.29213343669 2.65631483751 10.9861160979 125.408488966 -33.3935184309 98.9811892865 -0.0802992989364 0.0137914645432 -0.106248504239
1 8.06388403262 16.0821955459 13.5641930219 -43.5336773383 -137.142156478 42.9989374839 0.00044583565773 -0.00551627380956 -0.0105751058487
1 5.41003327382 5.57142424364 0.149778371171 -16.7760998208 134.657143431 116.849154466 -0.0301266205894 -0.0388007074536 -0.0404727871459
1 5.32281929122 8.24181880411 2.82303297752 -83.0933538404 107.90166466 97.1975821622 -0.00119346943709 -0.0342101260081 -0.0303963789243
1 7.8675067604 8.08890652286 0.0849553321873 -203.126939825 -12.6771924352 75.5085967228 0.0457248689138 0.0108900691115 -0.00860731558806
1 7.88587702279 5.29924860272 2.67368934975 -192.542081561 -88.5368750238 7.15472561393 0.0336661173794 0.0208784420559 0.0436620438885
1 5.16639480512 5.44142190749 5.50234778211 -193.579776252 26.4174738144 96.2836463577 0.0506088658246 -0.0089707638266 -0.000946277868637
1 5.57613528516 8.23316498987 8.02055301568 128.780806821 122.751795414 -86.9790284606 -0.047829214544 -0.00172284769002 0.00121694580637
1 8.04705877578 8.12324129491 5.40511177882 -44.5686048086 3.94670086028 -8.59803300431 0.0188031429396 -0.0134776504643 -0.0107777691542
1 8.23253068948 5.6490136393 8.21305926016 110.827134135 206.822593999 101.420023373 -0.0161161778892 -0.0410113711457 -0.00339316267503
1 5.23167627873 5.72219553513 10.8477884527 -156.687036574 281.397771663 23.9350888009 0.0163272963288 -0.0378177035848 -0.0178482011604
1 5.50614818823 8.22086356108 13.474590773 78.6580302214 79.7867705955 -4.65498237698 -0.025333261055 -0.0417836806653 0.0467433695884
1 7.86652685353 8.29971217896 10.8855397912 -142.113107717 120.091188863 65.4391797777 0.13560443126 -0.103708550308 -0.0162766096691
1 8.14384118834 5.43674111385 13.4277486583 34.1975598174 62.8578842046 -78.2275401563 -0.00137669830159 0.0390237457086 0.00610995155227
1 5.3904523868 10.8077774002 16.0761166673 -14.4739501543 19.6724704506 -115.04933572 0.000492354846225 0.0255088039634 0.0268642961511
1 5.48631156492 13.7712363992 2.78900999383 97.5645922794 212.399384332 71.0730286169 0.0265987321284 -0.0583287701195 -0.0136747023203
1 8.17532003663 13.4017750991 0.0228657633337 59.2563525984 -109.172439274 24.0572132028 -0.00943290140947 0.000655661878629 0.00289888990138
1 7.94171617227 10.7068082363 2.79957058473 -150.904599694 -78.7394229465 90.2033981726 0.0178177263008 0.0299761549203 -0.00783014634201
1 5.12428568271 10.8481370217 5.24056964729 -223.2246877 25.5251511377 -125.923165584 0.0709036947674 -0.0156602591711 0.0513744533384
1 5.26546554149 13.3057853727 7.87402158257 -108.989881931 -172.450013038 -196.177808623 0.0369350141478 0.0444216692963 0.042597707935
1 8.06905730343 13.4265920277 5.52324278196 -35.5383120357 -81.3379382013 105.95968681 0.00430078436756 0.00366782115834 -0.0136755744946
1 8.27584114733 10.7321036103 8.21216712863 137.528239675 -45.5574820656 78.2466447296 -0.0385341493081 0.0426527589802 -0.0296081292995
1 5.57847719175 10.6791951124 10.9046535492 113.579751735 -57.588264851 50.5147696863 -0.0835460401297 0.108376538257 -0.0561507875483
1 5.29340801595 13.6233678353 13.3698289874 -76.0007335423 111.43339067 -106.914005477 0.0453015039646 0.00200538024696 0.0467865671232
1 8.09417243199 13.4692285029 10.7955151703 -23.2581877079 -23.7864604102 -21.9872484592 -0.0115966076551 0.0218848055926 -0.00766664345062
1 8.20455816263 10.8350165808 13.4557160445 92.3647752195 34.4177441496 -20.4580123982 -0.00624700580102 0.0108710194633 0.0443527616264
1 10.7160163225 16.1149609799 16.0671222073 -73.2200811952 -89.1736205927 -123.046411339 0.0220841395758 0.0121606438511 0.0267115297021
1 10.7784812872 2.84284811917 2.63419079953 -23.0041433338 129.254835633 -70.9898925821 0.00874654267932 -0.0112543471558 -0.00184464323968
1 13.6127113279 2.67413501202 16.0888468898 39.4327945821 -20.6008407465 -65.30242493 -0.0847325227152 0.0116502865735 0.089886301995
1 13.7367234884 0.122007362473 2.84753852362 188.497011144 129.936156288 102.779347922 -0.0372534392901 0.0123639629344 -0.0522996564242
1 10.6315046293 0.167087041188 5.28300283589 -146.989282126 139.750204992 -106.759572335 0.0442610226452 -0.0379088473493 0.0132832924693
1 10.8456900908 2.71978175847 8.16661178516 20.0826998747 16.5205993388 37.0318603548 -0.019836716006 0.00111755057659 -0.0297762586447
1 13.462005808 2.70255995054 5.36631055143 -31.9558176932 -2.47546429839 -24.2931408446 0.0234422561124 -0.00591833365439 0.0171758534131
1 13.5069923124 16.136705577 8.10158522659 -13.5399258444 -71.5298353266 0.822046998267 -0.00868485871334 0.007622662939 0.00936289939952
1 10.8050295431 0.152062029019 10.6609866085 -10.2878715091 103.267226833 -133.395003347 -0.00554579945785 -0.0612732458103 0.0187368229495
1 10.5631578732 2.70589235358 13.4368850404 -173.288526775 -1.1388716016 -24.5294548658 0.0979223355899 -0.00618682545519 0.0746288533596
1 13.3659628812 2.68066817056 10.7170741327 -120.555661951 -35.9599654209 -88.2193997265 0.0333213509188 -0.0186009524317 0.00570755253911
1 13.364008436 16.1212782389 13.3473543099 -158.546493438 -83.9098112411 -134.102306066 -0.0149420940932 0.0120159115488 0.0350411043272
1 10.902251196 5.45102133732 16.2034433812 89.8781078332 30.5171947403 -28.9659894104 -0.00198996891141 -0.0212860387401 -0.0228458632959
1 10.8047883802 7.92337808316 2.54702084139 -9.80535248559 -191.820925148 -113.021691201 -0.00526646125759 -0.0136559235214 0.054287668581
1 13.7216499502 7.98553645618 16.1788362564 161.083623337 -115.518575981 -38.9111108139 -0.0616566959386 0.00622838899357 0.0038522997658
1 13.7248417467 5.54193660773 2.6781578732 185.147099165 89.9443124487 -39.2230976852 -0.0366383649526 -0.0581440540772 -0.0171814674389
1 11.1049606086 5.33403998777 5.42547545721 236.910112548 -53.1601043053 10.7280224663 -0.0675895837273 0.0210910275208 -0.0136109481209
1 10.7160837117 8.24821543593 8.30188860293 -61.5838735259 120.724131859 183.912770432 0.0448133193344 -0.0254811495994 -0.00929939308381
1 13.6176779482 7.92406990726 5.60030392012 80.4302569073 -141.79792579 182.024814199 -0.0295119398658 0.0494292376287 -0.0166684721144
1 13.3462197598 5.391340052 8.21695044615 -122.633107331 -13.4457533245 95.5851195215 0.0529040925787 0.00103389672543 -0.0163570570034
1 10.945051417 5.37186040288 10.7948480886 87.5479828088 -17.1743156778 -2.49276758986 -0.0601667516398 0.0174162436506 0.017531343468
1 10.7702005547 8.03210568662 13.5717304923 -30.3529899733 -61.4106840071 52.0225538224 0.0110050098864 0.0166638768566 -0.0083282006767
1 13.5258471395 8.00327835806 10.8542974662 4.87730778454 -63.0329783972 36.5790788159 -0.00915123277711 0.0500856880871 -0.00924538310912
1 13.627375414 5.28151581157 13.1712795984 81.8913144011 -108.315993844 -272.076301543 -0.0388663078999 0.0180072990603 0.0862889698134
1 10.6900135189 10.5716237321 0.270229640925 -107.386648399 -205.511856278 229.91141028 0.0107483166839 0.0396541739155 -0.0464080464257
1 10.7735662953 13.5388908604 2.89648994474 -62.3091346745 21.666530116 147.005982356 -0.0391082216377 -0.00866581506665 -0.0599377333639
1 13.7188681166 13.3567777284 0.24342434907 159.361825542 -127.247384303 216.161344456 -0.0555721857117 0.0352807230318 -0.0295860208322
1 13.4704051673 10.6523950613 2.71145323347 -45.3078690253 -139.847017614 25.2769449733 -0.00692923226365 0.0211005634833 0.0167264878563
1 10.8778818392 10.6029451226 5.27214773234 59.4722185393 -198.001216103 -120.741963613 -0.0103089769296 0.00790536550051 0.0144744366924
1 10.8487466569 13.4030441849 8.047218322 8.72225988667 -71.3718431533 -59.014749483 -0.0410907758002 0.0498548666336 0.00132684882698
1 13.2379081969 13.8818559455 5.26594763237 -225.697806475 313.315353016 -100.148081671 0.0618634992179 -0.0635961351974 0.0550726319494