108
Atom. timestep:0
1 16.212413614 0.000433006917381 16.2130513654 -258.647101143 43.2921850874 -194.871966845 -0.000704518903168 -0.000704518903168 -0.000704518903168
1 0.000372806583338 2.70037105409 2.70302399985 37.2721517217 -212.903096008 52.3914787226 -0.000704518903168 -0.000704518903168 -0.000704518903168
1 2.70072903481 2.70100085031 0.000185026046548 -177.105024339 -149.923473931 18.4940981629 -0.000704518903168 -0.000704518903168 -0.000704518903168
1 2.70453055032 0.0011328859979 2.70418441554 203.046524805 113.280092691 168.433046529 -0.000704518903168 -0.000704518903168 -0.000704518903168
1 16.2137250415 0.000561961708872 5.40186631908 -127.504355264 56.187664154 -313.376596221 -0.000704518903168 -0.000704518903168 -0.000704518903168
1 0.00297092671024 2.70309066378 8.10604746326 297.084162749 59.0578713513 -145.24516688 -0.000704518903168 -0.000704518903168 0.000704518903168
1 2.70309845555 2.70272504995 5.40332996484 59.8370481474 22.4964889301 -167.012021132 -0.000704518903168 -0.000704518903168 -0.000704518903168
1 2.70010896576 7.5759030357e-05 8.10499437135 -239.111928347 7.56739661368 -250.554357323 -0.000704518903168 -0.000704518903168 0.000704518903168
1 0.000408046302537 0.0026578005572 10.8115619235 40.796123619 265.771547646 156.200856732 -0.000704518903168 -0.000704518903168 0.000704518903168
1 16.2125926681 2.70368173117 13.5119996465 -240.741696708 118.164609441 -50.0268465698 -0.000704518903168 -0.000704518903168 0.000704518903168
1 2.70262484396 2.70394932446 10.8112444318 12.4758891919 144.923938874 124.4516884 -0.000704518903168 -0.000704518903168 0.000704518903168
1 2.70085991204 16.2114560754 13.5123180804 -164.0173013 -354.400966547 -18.1834551469 -0.000704518903168 -0.000704518903168 0.000704518903168
1 16.2144304779 5.40568291959 16.2135676666 -56.9607149407 68.2834516926 -143.24184437 -0.000704518903168 -0.000704518903168 -0.000704518903168
1 0.0020837605163 8.10884658217 2.7033075933 208.367543922 134.666722534 80.7508230819 -0.000704518903168 0.000704518903168 -0.000704518903168
1 2.69974830059 8.10837533339 3.74535613068e-05 -275.178445396 87.5418445191 3.73684973317 -0.000704518903168 0.000704518903168 -0.000704518903168
1 2.70001372573 5.40317969784 2.70002783342 -248.635932062 -182.038720789 -247.225163094 -0.000704518903168 -0.000704518903168 -0.000704518903168
1 0.000102155498083 5.40355103835 5.4066607883 10.2070433693 -144.904670433 166.070322409 -0.000704518903168 -0.000704518903168 -0.000704518903168
1 0.000280299493931 8.10704408397 8.10845928333 28.0214428401 -45.5830964606 95.9368391064 -0.000704518903168 0.000704518903168 0.000704518903168
1 2.70286705389 8.10303776655 5.40552500776 36.6968821357 -446.214836085 52.4922690583 -0.000704518903168 0.000704518903168 -0.000704518903168
1 2.70496737308 5.40725434656 8.1077186875 246.728800155 225.426148033 21.8772557966 -0.000704518903168 -0.000704518903168 0.000704518903168
1 0.00121193677699 5.40611498387 10.8076583271 121.18517055 111.489879631 -234.158786671 -0.000704518903168 -0.000704518903168 0.000704518903168
1 0.00228475003564 8.10425743671 13.5138643728 228.466495729 -324.247820948 136.445785379 -0.000704518903168 0.000704518903168 0.000704518903168
1 2.69991128045 8.10985137336 10.8104598967 -258.880459281 235.145840983 45.9981732455 -0.000704518903168 0.000704518903168 0.000704518903168
1 2.70484529868 5.40608351568 13.5137235911 234.521360499 108.34306126 122.367618286 -0.000704518903168 -0.000704518903168 0.000704518903168
1 16.214511138 10.8133546834 0.00106526094917 -48.8947043984 335.476848676 106.517587862 -0.000704518903168 0.000704518903168 -0.000704518903168
1 16.2144887779 13.5120845792 2.70338466606 -51.1307181319 -41.5335756612 88.4580992081 -0.000704518903168 0.000704518903168 -0.000704518903168
1 2.70177318562 13.5137340987 0.00160059946133 -72.6899441819 123.418370816 160.051438735 -0.000704518903168 0.000704518903168 -0.000704518903168
1 2.70582258495 10.8104955534 2.70353777693 332.249986119 49.5638499486 103.769185735 -0.000704518903168 0.000704518903168 -0.000704518903168
1 16.2148521361 10.8086148419 5.40644327088 -14.7948942013 -138.507302838 144.318580772 -0.000704518903168 0.000704518903168 -0.000704518903168
1 16.2145058485 13.514476802 8.10788756137 -49.4236601178 197.688707965 38.7646432101 -0.000704518903168 0.000704518903168 0.000704518903168
1 2.70258609156 13.512966107 5.40540303578 8.60064920962 46.6192028441 40.2950713128 -0.000704518903168 0.000704518903168 -0.000704518903168
1 2.70570971672 10.8116643272 8.10645092501 320.963163114 166.441230175 -104.898991996 -0.000704518903168 0.000704518903168 0.000704518903168
1 0.00119290335446 10.8103651575 10.8118608625 119.281828309 36.5242553591 186.09475072 -0.000704518903168 0.000704518903168 0.000704518903168
1 16.2130830201 13.5141553198 13.5127515973 -191.706497696 165.540486093 25.1682346795 -0.000704518903168 0.000704518903168 0.000704518903168
1 2.70077242697 13.5116731444 10.8114062365 -172.765808047 -82.677055512 140.632155429 -0.000704518903168 0.000704518903168 0.000704518903168
1 2.70145992229 10.8092201407 13.5132425967 -104.016277021 -77.9774229449 74.2681726182 -0.000704518903168 0.000704518903168 0.000704518903168
1 5.40503642296 16.2139611673 16.2132623776 3.6337894622 -103.891772467 -173.770748622 -0.000704518903168 -0.000704518903168 -0.000704518903168
1 5.40297186459 2.70112685018 2.70117638931 -202.822045803 -137.323487201 -132.369574058 -0.000704518903168 -0.000704518903168 -0.000704518903168
1 8.10832151981 2.70417930505 0.00223349972295 82.1604865236 167.92199724 223.341464492 0.000704518903168 -0.000704518903168 -0.000704518903168
1 8.1070071156 0.000419852485071 2.69882727059 -49.2799331819 41.9767418649 -367.281445043 0.000704518903168 -0.000704518903168 -0.000704518903168
1 5.40450931539 0.00141208593196 5.40445095101 -49.0769666889 141.200085919 -54.9134050653 -0.000704518903168 -0.000704518903168 -0.000704518903168
1 5.40691573037 2.70154301878 8.10557525983 191.564529047 -95.7066281161 -192.465509636 -0.000704518903168 -0.000704518903168 0.000704518903168
1 8.10625686468 2.70374998252 5.40439898501 -124.305024791 124.98974513 -60.1100050672 0.000704518903168 -0.000704518903168 -0.000704518903168
1 8.10587528774 0.00127727770428 8.10676244168 -162.462718466 127.719263237 -73.7473252224 0.000704518903168 -0.000704518903168 0.000704518903168
1 5.40232261517 16.2147999896 10.8094154931 -267.746987889 -20.0095421627 -58.4421857311 -0.000704518903168 -0.000704518903168 0.000704518903168
1 5.40507066277 2.70250843274 13.5132623096 7.05777059648 0.834767632034 76.2394698821 -0.000704518903168 -0.000704518903168 0.000704518903168
1 8.11017012269 2.70339618587 10.8084211679 267.020773466 89.6100803128 -157.874706908 0.000704518903168 -0.000704518903168 0.000704518903168
1 8.10760835906 0.002775179575 13.5130139365 10.8444125206 277.509449351 51.4021592031 0.000704518903168 -0.000704518903168 0.000704518903168
1 5.40649970138 5.40409139761 0.000242278958103 149.961630677 -90.8687443292 24.2193892817 -0.000704518903168 -0.000704518903168 -0.000704518903168
1 5.40236420191 8.10505606576 2.70240930601 -263.588314127 -244.384915897 -9.07790500955 -0.000704518903168 0.000704518903168 -0.000704518903168
1 8.10621116554 8.10981417924 0.00495860324465 -128.874939 231.426428707 495.851814918 0.000704518903168 0.000704518903168 -0.000704518903168
1 8.10586864454 5.40100965747 2.70235264609 -163.127038265 -399.042756817 -14.7438976547 0.000704518903168 -0.000704518903168 -0.000704518903168
1 5.40614665278 5.40535061187 5.40491625869 114.656771382 35.0526800929 -8.38263780528 -0.000704518903168 -0.000704518903168 -0.000704518903168
1 5.40501143795 8.11022023006 8.11066872821 1.13528894556 272.031510743 316.881325157 -0.000704518903168 0.000704518903168 0.000704518903168
1 8.10734001727 8.1053250223 5.40605352214 -15.9897666974 -217.48926253 105.343706622 0.000704518903168 0.000704518903168 -0.000704518903168
1 8.10924033034 5.4055326491 8.1061977689 174.041539357 53.256402802 -130.214602349 0.000704518903168 -0.000704518903168 0.000704518903168
1 5.40424204357 5.40498206897 10.810495682 -75.8041484555 -1.8016089008 49.5767050971 -0.000704518903168 -0.000704518903168 0.000704518903168
1 5.40453370482 8.10692352143 13.5123894099 -46.6380244078 -57.6393504771 -11.0505007027 -0.000704518903168 0.000704518903168 0.000704518903168
1 8.11030924695 8.10871694601 10.8104123842 280.933199351 121.703106555 41.2469218078 0.000704518903168 0.000704518903168 0.000704518903168
1 8.10779529622 5.40410704817 13.5143741883 29.5381280855 -89.3036889028 187.427331993 0.000704518903168 -0.000704518903168 0.000704518903168
1 5.40563819844 10.8088781633 16.2136746332 63.8113375723 -112.175161366 -132.545180938 -0.000704518903168 0.000704518903168 -0.000704518903168
1 5.40474459124 13.512403824 2.70161059178 -25.549382616 -9.60909205616 -88.9493281021 -0.000704518903168 0.000704518903168 -0.000704518903168
1 8.10683182943 13.5123996595 16.2137104947 -66.8085505931 -10.0255474449 -128.959036769 0.000704518903168 0.000704518903168 -0.000704518903168
1 8.10827075361 10.8101146575 2.70064063837 77.083866738 11.4742578694 -185.944668439 0.000704518903168 0.000704518903168 -0.000704518903168
1 5.40310247602 10.8068191787 5.40604077887 -189.760902678 -318.073618279 104.069380113 -0.000704518903168 0.000704518903168 -0.000704518903168
1 5.40482506443 13.5130574299 8.10715081666 -17.5020629417 55.7515000024 -34.9098273515 -0.000704518903168 0.000704518903168 0.000704518903168
1 8.10781653911 13.5118566126 5.40515474418 31.6624175891 -64.3302375295 15.4659117365 0.000704518903168 0.000704518903168 -0.000704518903168
1 8.1085786638 10.8097652735 8.10798835097 107.874885578 -23.4641482421 48.8436031558 0.000704518903168 0.000704518903168 0.000704518903168
1 5.40667924128 10.809470316 10.8114793314 167.915620397 -52.9598901829 147.941643837 -0.000704518903168 0.000704518903168 0.000704518903168
1 5.40628728876 13.5141379039 13.5119397957 128.720369115 163.798892016 -56.0119231732 -0.000704518903168 0.000704518903168 0.000704518903168
1 8.10725225151 13.5132400807 10.8089074038 -24.7663426941 74.0165754343 -109.251113706 0.000704518903168 0.000704518903168 0.000704518903168
1 8.10884608519 10.8117677609 13.5116512506 134.617024143 176.784599786 -84.8664295638 0.000704518903168 0.000704518903168 0.000704518903168
1 10.8105686686 0.000211819015978 0.000472337291948 56.8753624569 21.1733950887 47.2252225189 0.000704518903168 -0.000704518903168 -0.000704518903168
1 10.8089648276 2.70166114499 2.70380251825 -103.508728302 -83.8940064789 130.243317742 0.000704518903168 -0.000704518903168 -0.000704518903168
1 13.511843668 2.70445206639 16.2129671593 -65.6246928415 195.198131223 -203.292576735 0.000704518903168 -0.000704518903168 -0.000704518903168
1 13.5097623674 0.000406623003315 2.70162387733 -273.754755283 40.6537936977 -87.6207727285 0.000704518903168 -0.000704518903168 -0.000704518903168
1 10.8087754492 16.2131001503 5.40583031992 -122.446569439 -189.993473687 83.0234847393 0.000704518903168 -0.000704518903168 -0.000704518903168
1 10.8135757079 2.70105832381 8.10768666867 357.579290078 -144.176124478 18.6753732074 0.000704518903168 -0.000704518903168 0.000704518903168
1 13.5124802108 2.7000849998 5.40809157927 -1.97041726709 -241.508525225 309.149418401 0.000704518903168 -0.000704518903168 -0.000704518903168
1 13.5096178819 0.000807663627305 8.10533771658 -288.20330264 80.7578558401 -216.219834435 0.000704518903168 -0.000704518903168 0.000704518903168
1 10.8097101912 16.2137249336 10.8076539617 -28.9723714916 -127.515142116 -234.595322731 0.000704518903168 -0.000704518903168 0.000704518903168
1 10.8090108813 2.70035684926 13.5132072526 -98.9033657852 -214.32357862 70.7337672052 0.000704518903168 -0.000704518903168 0.000704518903168
1 13.5131502064 2.70561776159 10.811086923 65.0291498953 311.767650527 108.700802668 0.000704518903168 -0.000704518903168 0.000704518903168
1 13.5103815592 0.00122830200117 13.5117002084 -211.835569005 122.821692957 -79.9706496799 0.000704518903168 -0.000704518903168 0.000704518903168
1 10.8067799604 5.40437584234 0.00107207278649 -321.995452681 -62.4242719692 107.198771589 0.000704518903168 -0.000704518903168 -0.000704518903168
1 10.8112279503 8.10852751088 2.70342691481 122.803538132 102.759593702 92.6829739442 0.000704518903168 0.000704518903168 -0.000704518903168
1 13.5122625145 8.10692745752 0.00152325456227 -23.7400476464 -57.2457412919 152.316948879 0.000704518903168 0.000704518903168 -0.000704518903168
1 13.5127740939 5.40699044649 2.70053250354 27.4178931811 199.036141128 -196.758151569 0.000704518903168 -0.000704518903168 -0.000704518903168
1 10.8101276528 5.4027625581 5.40571076181 12.7737822347 -223.752694481 71.067674347 0.000704518903168 -0.000704518903168 -0.000704518903168
1 10.8077285319 8.10694189501 8.1092871069 -227.138304983 -55.8019923303 178.719195587 0.000704518903168 0.000704518903168 0.000704518903168
1 13.513833366 8.10627277282 5.40299731344 133.345106333 -122.714210654 -200.277161176 0.000704518903168 0.000704518903168 -0.000704518903168
1 13.5146911532 5.40707887729 8.10622929876 219.1238253 207.879221282 -127.061616366 0.000704518903168 -0.000704518903168 0.000704518903168
1 10.8108428672 5.40412349352 10.8097087725 84.295227527 -87.6591537067 -29.1142414538 0.000704518903168 -0.000704518903168 0.000704518903168
1 10.8102339592 8.10590541245 13.5125002726 23.4044252029 -159.450247697 0.0357644536925 0.000704518903168 0.000704518903168 0.000704518903168
1 13.5127040974 8.10949781359 10.8082677699 20.4182429557 199.7898643 -173.214503379 0.000704518903168 0.000704518903168 0.000704518903168
1 13.5102061223 5.40525049407 13.5131436599 -229.379258233 25.0408999742 64.3745003892 0.000704518903168 -0.000704518903168 0.000704518903168
1 10.8093147669 10.8117729242 16.2148295314 -68.5148079723 177.30092701 -17.0553617905 0.000704518903168 0.000704518903168 -0.000704518903168
1 10.81027352 13.5105933932 2.70344057933 27.3605078824 -190.652176103 94.0494263442 0.000704518903168 0.000704518903168 -0.000704518903168
1 13.5122439152 13.5137594221 16.2144724766 -25.5999689496 125.950711982 -52.7608506694 0.000704518903168 0.000704518903168 -0.000704518903168
1 13.515299675 10.8103313661 2.70143579104 279.976007819 33.145119355 -106.429401728 0.000704518903168 0.000704518903168 -0.000704518903168
1 10.8073155377 10.8073942738 5.40322378258 -268.437717026 -260.564109154 -177.630247734 0.000704518903168 0.000704518903168 -0.000704518903168
1 10.8084880571 13.5096121234 8.10698611745 -151.185779002 -288.779146816 -51.379748545 0.000704518903168 0.000704518903168 0.000704518903168
1 13.5127626152 13.5159817017 5.40443570617 26.2700253684 348.178674552 -56.4378893492 0.000704518903168 0.000704518903168 -0.000704518903168
1 13.5133435277 10.8136491367 8.10625597961 84.3612734868 364.922171466 -124.393531962 0.000704518903168 0.000704518903168 0.000704518903168
1 10.8096453273 10.8091821847 10.811457281 -35.4587584389 -81.7730192719 145.736608448 0.000704518903168 0.000704518903168 0.000704518903168
1 10.8108743221 13.5125029843 13.5131226642 87.4407189282 0.306938852389 62.2749303513 0.000704518903168 0.000704518903168 0.000704518903168
1 13.5121140407 13.5155852468 10.8086568977 -38.5874233524 308.533188244 -134.301725734 0.000704518903168 0.000704518903168 0.000704518903168
1 13.5146548235 10.8114398326 13.5121476436 215.490850851 143.99176172 -35.2271320341 0.000704518903168 0.000704518903168 0.000704518903168
108
Atom. timestep:0.997765006386
1 15.9609737859 0.0468407723445 16.0333808375 -237.481446873 56.0843813344 -151.844946926 0.0168647822575 0.015711704168 0.0319798362536
1 0.0214850298064 2.50389977643 2.74172769203 -8.14629494031 -159.181313016 6.07272422255 -0.0320446998559 0.052268275703 -0.0474681991335
1 2.52715333474 2.5500197593 0.00444869473374 -166.669501703 -153.80416995 -23.7341193492 0.00828311255893 -0.00471930949479 -0.0334255353415
1 2.88583591142 0.0923474949564 2.85483284961 131.454865424 39.8533450741 114.371263439 -0.0696570119578 -0.0711656606326 -0.0450620212081
1 16.0973927704 0.0502436801707 5.10889378449 -90.5647583632 32.04418299 -246.472173662 0.0348544241057 -0.0274670211897 0.0644225953839
1 0.285499438185 2.75859304207 7.97478903603 253.806785503 49.765998859 -100.652912611 -0.0350875942531 -0.00558865369473 0.0411111196626
1 2.76348072894 2.73556590644 5.24887328676 60.2507797764 54.5915642285 -128.239058565 -0.00120240445989 0.0274998412843 0.0323492528171
1 2.4773452418 0.00986288395749 7.86695798197 -186.778250641 12.9324086682 -215.279024583 0.0480143713017 0.00229419445797 0.0251482341791
1 0.0332550815592 0.26139202752 10.9517474956 18.5388268703 243.07856359 108.960851643 -0.0157781216904 -0.0206222599231 -0.0372738008132
1 15.9921263079 2.82617291321 13.4664006578 -179.3557445 131.154733612 -33.6837768486 0.0511627914562 0.0104299971917 0.0183072287467
1 2.71551310977 2.84308959635 10.9311890399 11.97762844 128.90736542 112.548375775 -0.00261687059194 -0.0111865533777 -0.00730772031657
1 2.54647254051 15.8856061091 13.5013358168 -130.769216038 -269.281045268 5.55585225154 0.0333125891332 0.0690553550674 0.0224697505535
1 16.156976554 5.45789498076 16.0843110355 -60.0735112382 14.8136804814 -96.5223753356 -0.00568507937798 -0.0523461561553 0.0464765847089
1 0.205610836088 8.23782781918 2.78113890056 192.471124171 117.957152789 74.1179303175 -0.0149400962709 -0.0128069534533 -0.00161110579306
1 2.44846916848 8.19657383721 0.0126115342717 -200.536800311 91.2673408124 33.7917886315 0.0649680184918 0.00526580896971 0.0287759368415
1 2.46124922485 5.22692187826 2.46158905342 -219.471419282 -162.284261862 -220.305604795 0.0235181813443 0.0192091101845 0.022943134559
1 0.0129735294995 5.26306494315 5.55114543226 19.9538020885 -128.552226626 97.1978892691 0.0101176203538 0.0181137970542 -0.0626915662489
1 0.0335106439146 8.0803659589 8.18994799385 45.5067848213 12.6704288655 49.386447894 0.0168914645501 0.0496047127417 -0.0424261467957
1 2.73407030801 7.68370282472 5.45066835775 18.0074515102 -360.798344281 21.6902493629 -0.0190750475109 0.0772052754514 -0.0398092503436
1 2.94780635839 5.61160481732 8.13829992517 233.797062167 158.330327581 56.319698944 -0.0118551846503 -0.0605941932126 0.0417972659978
1 0.118683052315 5.50908014771 10.5919283916 111.393870489 83.0835277788 -179.380304611 -0.00618972445267 -0.0276356519783 0.0442966743685
1 0.200064718904 7.80397314683 13.6311605114 135.471582523 -249.083970373 65.9761004983 -0.0762042843712 0.0671859156143 -0.0781906054319
1 2.46716301356 8.33288326523 10.8538198939 -175.676130512 194.894422844 36.9671787435 0.0751509541951 -0.0394149386493 -0.00861206294966
1 2.92730197006 5.49989045147 13.6341071731 198.881315471 63.1020941693 117.966875856 -0.0288354999089 -0.0396401453205 -0.00109351606421
1 16.175979501 11.1301841893 0.0960074024127 -14.5437983107 280.641675575 66.3019386875 0.0326136972218 -0.0428680878346 -0.0413016698069
1 16.1721537243 13.4820142921 2.79025621709 -23.8584162265 -7.3306744894 85.8656832282 0.0233352620149 0.0276003270916 0.000783788394906
1 2.6309083884 13.6322997356 0.156372478454 -67.5503673419 110.1088897 146.199571585 0.00390637687819 -0.00854084348113 -0.00822569848692
1 3.01398869503 10.8562293434 2.80059139015 258.735620342 37.4053443014 79.4036276594 -0.0615108349059 -0.0107177453006 -0.0261572453675
1 16.2122484984 10.6805895633 5.54670758955 21.0547798277 -108.276052984 131.016897822 0.0280181781818 0.0230295746882 -0.0123484266678
1 16.167596737 13.7087629617 8.14431961501 -42.5858012989 187.308396524 31.7274584203 0.0043234675356 -0.00922076743146 -0.00554730408435
1 2.70918285241 13.5574558903 5.43777463035 2.75047728469 39.3441242932 15.2858598704 -0.00415557682569 -0.00751233933445 -0.0219163823483
1 2.99274302909 10.9713524589 8.01939677513 213.575853051 147.560451167 -44.1855054271 -0.0955388334584 -0.0129641924313 0.0597822593246
1 0.102879923943 10.8523287317 10.9827975092 60.5529083708 55.1633008734 140.811776176 -0.057521954435 0.0188740306069 -0.0365505249217
1 16.0236123194 13.6727458849 13.5325539916 -186.765265697 143.401374255 6.72128946629 0.000931457658624 -0.0194267734893 -0.018736540717
1 2.53868857205 13.4300269289 10.9396042351 -139.369031025 -79.2139196346 102.388294032 0.0295180943606 0.00366573027982 -0.0327292840836
1 2.60429106233 10.7448775091 13.5939435398 -83.1326368713 -39.2726196647 93.8723150351 0.017148636845 0.0283941408344 0.0161514925783
1 5.40309920043 16.120985664 16.0470082996 -15.0008553991 -71.0569055118 -149.534164532 -0.0177000164424 0.0268341479921 0.0223634343308
1 5.21554597202 2.57688455461 2.56808188733 -149.699788505 -91.9232315118 -137.431113798 0.0540010007324 0.0468093704978 -0.00896603172995
1 8.17906472296 2.83942602648 0.199090797633 45.2892586366 56.4556007762 130.596525101 -0.0332927919985 -0.111359531901 -0.0962544234675
1 8.05737664162 0.0332234902588 2.35642163653 -51.9796463731 13.6664843745 -293.373221908 -0.00422174964285 -0.0247140655573 0.0597085834186
1 5.36711757484 0.127358528369 5.34927282625 -12.8068611395 94.9433971289 -52.4399416161 0.0315552144079 -0.0380005584949 0.00667914248801
1 5.57533512592 2.62260269334 7.93090675303 117.923574232 -40.1254571871 -137.324081619 -0.0671110743885 0.0534897752485 0.0476238299294
1 7.99346632199 2.80830340232 5.34606125975 -88.7957557099 60.6404712969 -51.266350007 0.0309323987476 -0.0576091517169 0.0135050700086
1 7.95804631071 0.11669304047 8.03502299318 -114.883744452 86.3087828209 -66.7925237703 0.0445062403792 -0.0409954434191 0.00725812486208
1 5.14293249222 16.2011978992 10.7504445059 -245.378820342 -2.77975903505 -60.9121513308 0.0143509634444 0.0113787051262 -0.00301769982769
1 5.4107592949 2.70019063933 13.5862891265 1.58254481367 -6.2426370411 66.688665022 -0.00645190460175 -0.00232124662691 -0.00753053529454
1 8.36043412069 2.78909779434 10.655256809 218.886616373 76.7949357787 -144.349371375 -0.037021548341 -0.0127713581702 0.0104351265318
1 8.1160744772 0.262136367318 13.5572946936 -2.74682251401 218.17992593 31.6191890758 -0.0220956994615 -0.0567460890422 -0.0140650440108
1 5.54051798839 5.31976578771 0.0249662130071 102.864028287 -70.4131674431 24.9710288369 -0.0371079908567 0.0174944014409 -0.000212000656697
1 5.14681134942 7.86549907368 2.69304074068 -242.687182711 -230.893422843 -10.9681385726 0.0126094324483 0.00971798356802 -0.00367885324608
1 7.98850801669 8.30711193529 0.463908671181 -95.1408274859 108.324837065 377.182460981 0.0258730334583 -0.133999679171 -0.110798307707
1 7.94876837308 5.04158131931 2.7035050043 -147.764420775 -269.632473445 39.4907808543 0.00858072474648 0.122731850849 0.0537644370585
1 5.51019926948 5.43202731018 5.39803108968 83.5759836292 7.40917081734 -1.84138741977 -0.0247992626695 -0.026092308481 0.00824846581199
1 5.41420377044 8.35877036674 8.4192878957 25.3653103581 199.137113845 291.802898279 0.0190336965866 -0.0629800167054 -0.0217069766034
1 8.08746167999 7.89913912028 5.4954103467 -24.7562654314 -179.66117004 57.21289508 -0.00288840845075 0.0367773472824 -0.039866496759
1 8.26782592146 5.44572969212 7.99423229938 126.046816352 8.27061643806 -73.3870469526 -0.0411624540084 -0.0453922219868 0.0490797531486
1 5.34447328417 5.40586319251 10.8564784626 -28.4561874097 5.4627949017 40.4916483571 0.0377577657743 0.00467308342703 -0.00440236175951
1 5.36893080951 8.05507037485 13.5033553397 -13.4037240822 -38.5567380576 -5.55956503807 0.0276748028832 0.0183937068206 0.00324264275886
1 8.36417270383 8.21191475922 10.8632464324 192.643409354 66.7681001604 79.7002503282 -0.0823046280517 -0.0439808442524 0.0374731136978
1 8.13402108785 5.3216875969 13.6853382423 18.7086784547 -70.6020194592 134.347522349 -0.0101599500448 0.0123791019015 -0.0482660454046
1 5.45790686518 10.7085946594 16.0821161015 28.6044171364 -75.2620235235 -129.594548355 -0.0285699201175 0.0314394756496 0.00211819776367
1 5.38995295679 13.5051527541 2.61998180935 7.74622360429 0.670962293559 -69.0134359357 0.0285479119197 0.0133222909159 0.0131610698234
1 8.04645980938 13.5066936683 16.0892188519 -47.9724625198 1.86547770454 -114.64451312 0.0147233477694 0.008384303352 0.0128183641533
1 8.16709408441 10.8373581019 2.54336394889 26.1084116601 80.2932450361 -88.6792646307 -0.0354219818493 0.0913645378109 0.0973437294915
1 5.24237856267 10.4993591248 5.49687932516 -98.1024071603 -291.428814295 61.286415871 0.0812668109162 0.0126816516402 -0.0389898305916
1 5.39147240565 13.5707947199 8.07351999975 -2.26868537653 64.7022605111 -31.8443554154 0.016478370125 0.0121525153802 0.00147565687428
1 8.12463495305 13.4472386694 5.41386616552 -11.7043201694 -66.5790847544 -3.38921558916 -0.033706167732 -0.00402153676706 -0.0134617590174
1 8.20016193988 10.7846601896 8.15359276101 55.7075222334 -32.0169768241 39.7701516069 -0.048027675337 -0.0133672767852 -0.00594421651632
1 5.56476313354 10.7689005678 10.9618385985 138.9438106 -13.7954894185 157.285000907 -0.0227184145049 0.0353890830849 0.0115688353421
1 5.52698956717 13.6645761608 13.4528133822 106.233719458 123.936303925 -68.4134817636 -0.0163116619512 -0.031891223943 -0.0151201099849
1 8.08283006146 13.5902071599 10.7055944586 -24.9169427235 80.5783040329 -92.656752821 -0.00183594447667 0.00222251173021 0.0117871716079
1 8.23628851279 10.9762548222 13.4361478305 111.974660112 142.272640681 -56.4620211377 -0.0198611516604 -0.0246147991169 0.0236402591566
1 10.8589666366 0.0184249181922 0.0433359639789 29.4034211215 12.9141743739 29.5986979182 -0.0259023073019 -0.00574870297865 -0.0215349207911
1 10.7193909558 2.62041505332 2.83406397273 -65.3699752253 -76.3245702688 129.540011834 0.025025090156 0.00591018719389 -0.00180730479019
1 13.4417359027 2.89085446668 16.0302334745 -79.4088117233 166.305837085 -140.656207403 -0.0120575108809 -0.0275796609881 0.0527664212363
1 13.2492050059 0.0439258376799 2.61682632493 -230.447505774 47.996676558 -75.1434927632 0.0414966288222 0.00373810359359 0.0169112168211
1 10.6742811362 16.0351286658 5.47834194296 -157.588145995 -153.257777018 50.9427245966 -0.0263118452163 0.0308124236838 -0.0259269355058
1 11.1327145687 2.58267667312 8.13149692143 226.395060837 -51.3324542362 43.6785939716 -0.130255810056 0.0995287335093 0.0349400282602
1 13.5175567234 2.48660686625 5.67661849649 26.6773004185 -145.691445326 173.391680861 0.0357834253112 0.0968151926238 -0.132548013969
1 13.2577429348 0.0517946619825 7.9195204565 -171.023249766 -38.1532902337 -114.62821573 0.10645389467 -0.141434556351 0.0977066671473
1 10.7749271697 16.0943502391 10.5842676103 -50.6236113767 -102.48039166 -200.884750624 -0.0238967459138 0.0217336238402 0.0272936086505
1 10.7153483959 2.50794553436 13.576218013 -80.4536228769 -140.273592022 48.1198744382 0.0202513068331 0.0740695382745 -0.017649698944
1 13.5769506355 3.00058607611 10.9043315903 61.075221532 261.959782488 61.6379305398 -0.00325502543839 -0.0401760079632 -0.040109895374
1 13.3061146452 0.120466709688 13.4288108074 -185.633707949 109.901735052 -88.7627682999 0.0270243902303 -0.0138714855389 -0.00753100036066
1 10.508122282 5.35607905754 0.111426407722 -243.670037092 -13.715509918 117.907635106 0.0761417043903 0.0495291203905 0.0111106248496
1 10.9243656936 8.19695550491 2.7857805056 96.3261912238 56.9754646122 54.5577567298 -0.0178420372167 -0.0427589609869 -0.0425940237996
1 13.4903246431 8.06510340097 0.135366154038 -18.3652089514 -6.88266769188 92.6470872205 0.00452614164933 0.0478452343081 -0.0555304404653
1 13.5423427293 5.57955501657 2.51968452702 33.1720588042 117.974746043 -148.43465327 0.00386823594754 -0.0702767021193 0.0418489021529
1 10.8317884142 5.19081926926 5.46920310289 39.9590734643 -189.21838357 48.9206032197 0.0224718103784 0.026882340132 -0.0169142646026
1 10.6126109923 8.05783424782 8.2675267472 -128.355253838 -35.3197737289 114.719499865 0.0852143318344 0.0176252320133 -0.0566692963916
1 13.6402164639 7.99330850404 5.21669826096 115.536265418 -94.1593097882 -161.147713307 -0.0100818394549 0.022271672569 0.0281815515472
1 13.713446504 5.60178927182 7.98921139234 152.968482723 167.057942481 -95.0197227605 -0.0609202802867 -0.0348172430281 0.0290799036806
1 10.8930180657 5.32458248336 10.7805488891 76.2816565773 -59.2318425536 -29.9229297307 -0.00916003777523 0.0297489271072 -0.00165305613544
1 10.831498692 7.96040348259 13.5229883814 14.9516807377 -116.480188092 29.0444238796 -0.0108861600522 0.0375741213675 0.0206436107385
1 13.5346665967 8.3023982767 10.6461983287 23.4347842299 180.074759133 -142.27225551 0.000640827613255 -0.0146156845305 0.0215746919137
1 13.2898276473 5.43802949708 13.5728322612 -200.555347274 47.1584592887 52.6888586769 0.0270781778203 0.0156568773825 -0.00702051832828
1 10.7548519431 10.9751577431 16.1944399399 -28.4375317096 135.866338437 -26.5629117057 0.0294893442438 -0.0331923324657 -0.00671462576806
1 10.8368700358 13.3308678605 2.79134007739 27.3828375391 -158.07184474 77.6066915395 0.00353205928578 0.0263469315964 -0.01025079271
1 13.4814756754 13.6356576263 16.169041428 -41.4422023636 111.763040936 -30.1551588074 -0.0136306201204 -0.0146601045937 0.019428713892
1 13.7725499024 10.8430104975 2.60878822464 208.166025715 28.1474760754 -63.3499966069 -0.0638851989274 -0.00956825428489 0.0383661950544
1 10.5596746463 10.5598493571 5.2434756979 -212.18906394 -216.299874582 -116.221614079 0.0369736472724 0.0452037448792 0.0622814096932
1 10.6663053776 13.2372240744 8.05434248869 -120.45080035 -235.663137648 -54.3334293864 0.0310619284824 0.0497450463366 -0.00118602443174
1 13.534866971 13.8363300195 5.34712586941 14.0535908081 264.56947524 -59.275675052 -0.010431170553 -0.0695182843862 -0.0037607332048