108
Atom. timestep:0.0
1 0.00160027954054 0.00115338821089 16.2135002055 160.019446656 115.330313977 -149.987957936 -0.000704518903168 -0.000704518903168 -0.000704518903168
1 16.2149570387 2.70529893783 2.70793611816 -4.30464070884 279.8852753 543.603306362 -0.000704518903168 -0.000704518903168 -0.000704518903168
1 2.70263047503 2.69944637856 16.2141463047 13.0389966315 -305.37064867 -85.3780392436 -0.000704518903168 -0.000704518903168 -0.000704518903168
1 2.7038695476 16.2148212231 2.69990417805 136.946252558 -17.8861971239 -259.590699543 -0.000704518903168 -0.000704518903168 -0.000704518903168
1 0.000300087834353 16.2146512407 5.40598682326 30.0002768697 -34.884439569 98.6738193376 -0.000704518903168 -0.000704518903168 -0.000704518903168
1 16.2139010455 2.70889350155 8.10803229867 -109.903958889 639.341644282 53.2383732011 -0.000704518903168 -0.000704518903168 0.000704518903168
1 2.70141342464 2.70179962653 5.40212940183 -108.666041512 -70.0458533136 -287.068321078 -0.000704518903168 -0.000704518903168 -0.000704518903168
1 2.70485508648 16.2083198397 8.10893621792 235.500140227 -668.024527614 143.630297609 -0.000704518903168 -0.000704518903168 0.000704518903168
1 16.2135430349 16.2135558522 10.8061103714 -145.705019554 -144.423283106 -388.954349202 -0.000704518903168 -0.000704518903168 0.000704518903168
1 16.2122176059 2.70337500726 13.5131491947 -278.247916389 87.4922186464 64.9279787431 -0.000704518903168 -0.000704518903168 0.000704518903168
1 2.70233868831 2.70788002962 10.8061791349 -16.1396751049 537.994451792 -382.078005355 -0.000704518903168 -0.000704518903168 0.000704518903168
1 2.69871494187 16.2119986166 13.5104325179 -378.514316902 -300.146848443 -206.739699674 -0.000704518903168 -0.000704518903168 0.000704518903168
1 16.2112341815 5.40671617003 16.2142824305 -376.590353793 171.608495558 -71.7654546545 -0.000704518903168 -0.000704518903168 -0.000704518903168
1 16.2083861577 8.10681085456 2.70238985264 -661.392732819 -68.9060369403 -11.0232425755 -0.000704518903168 0.000704518903168 -0.000704518903168
1 2.70251159687 8.10778385546 0.00127967570485 1.1511806003 28.3940521309 127.959063293 -0.000704518903168 0.000704518903168 -0.000704518903168
1 2.70190285067 5.40405611673 2.69845612561 -59.7234388929 -94.396832753 -404.395943221 -0.000704518903168 -0.000704518903168 -0.000704518903168
1 0.000918199491169 5.40634529144 5.40813889439 91.8114421557 134.52063699 313.880930448 -0.000704518903168 -0.000704518903168 -0.000704518903168
1 0.000255007721691 8.10934609221 8.10452931752 25.4922656324 184.617726366 -297.059739944 -0.000704518903168 0.000704518903168 0.000704518903168
1 2.70165637308 8.1074984369 5.40587828485 -84.3711979112 -0.147804120398 87.8199779244 -0.000704518903168 0.000704518903168 -0.000704518903168
1 2.70265194731 5.40198970892 8.11034039404 15.1862247944 -301.037612381 284.047908506 -0.000704518903168 -0.000704518903168 0.000704518903168
1 0.00167480946326 5.40470367423 10.8095315319 167.472438881 -29.6410828619 -46.8383006431 -0.000704518903168 -0.000704518903168 0.000704518903168
1 0.000157180054819 8.10640437899 13.5120048126 15.7094990078 -109.553594183 -49.510229476 -0.000704518903168 0.000704518903168 0.000704518903168
1 2.7029137889 8.11206204579 10.8142460863 41.370382984 456.213082369 424.617136086 -0.000704518903168 0.000704518903168 0.000704518903168
1 2.70073476429 5.40350812957 13.5110476205 -176.532076115 -149.195548734 -145.229447472 -0.000704518903168 -0.000704518903168 0.000704518903168
1 0.000119582689435 10.8140566131 0.00502582860035 11.9497624934 405.669815657 502.574350445 -0.000704518903168 0.000704518903168 -0.000704518903168
1 16.2134278039 13.514512414 2.70270810611 -157.228119983 201.249909179 20.8021044206 -0.000704518903168 0.000704518903168 -0.000704518903168
1 2.70425445113 13.5106166026 16.2111492347 175.436605819 -188.331236717 -385.085034357 -0.000704518903168 0.000704518903168 -0.000704518903168
1 2.70164149547 10.8140892133 2.70163419048 -85.8589587971 408.929833808 -86.5894573667 -0.000704518903168 0.000704518903168 -0.000704518903168
1 16.2146784855 10.8066861923 5.40683366546 -32.1599522999 -331.372264473 183.358038585 -0.000704518903168 0.000704518903168 -0.000704518903168
1 16.2149481783 13.51319123 8.10966199179 -5.19067229782 69.1315023453 216.207683645 -0.000704518903168 0.000704518903168 0.000704518903168
1 2.70266797543 13.5103013265 5.40075038045 16.7890364388 -219.858844376 -424.970458754 -0.000704518903168 0.000704518903168 -0.000704518903168
1 2.70169515811 10.8058223084 8.10651048997 -80.4926948793 -417.760646595 -98.9424956079 -0.000704518903168 0.000704518903168 0.000704518903168
1 16.2113675488 10.8070632755 10.812219465 -363.253626225 -293.663945081 221.95500607 -0.000704518903168 0.000704518903168 0.000704518903168
1 16.2137265607 13.5132555848 13.5125967034 -127.352430954 75.5669818421 9.67885119776 -0.000704518903168 0.000704518903168 0.000704518903168
1 2.69711427348 13.5111297552 10.8096391387 -538.581155011 -137.015972481 -36.0776270537 -0.000704518903168 0.000704518903168 0.000704518903168
1 2.70141275925 10.8143971491 13.5091780896 -108.732580482 439.723413334 -332.182526735 -0.000704518903168 0.000704518903168 0.000704518903168
1 5.4040612019 0.00118281209088 0.0031771229682 -93.8883159219 118.272701957 317.703788413 -0.000704518903168 -0.000704518903168 -0.000704518903168
1 5.40710443405 2.70572550713 2.69818011236 210.434897449 322.542204733 -431.997267824 -0.000704518903168 -0.000704518903168 -0.000704518903168
1 8.10783291144 2.701300979 0.001422384665 33.2996502913 -119.910605819 142.229959216 0.000704518903168 -0.000704518903168 -0.000704518903168
1 8.10546036871 0.000211548883867 2.70616428065 -203.954620985 21.1463818778 366.419556146 0.000704518903168 -0.000704518903168 -0.000704518903168
1 5.40584136471 16.2135798137 5.40315766446 84.1279645356 -142.027130706 -184.242058854 -0.000704518903168 -0.000704518903168 -0.000704518903168
1 5.40210088227 2.70438568202 8.10497474519 -289.920277056 188.559694481 -252.516973256 -0.000704518903168 -0.000704518903168 0.000704518903168
1 8.10898667157 2.69793957552 5.40449298771 148.675662474 -456.050951263 -50.7097348438 0.000704518903168 -0.000704518903168 -0.000704518903168
1 8.10798136199 16.2145649414 8.1112233945 48.1447051299 -43.5143706074 372.347954009 0.000704518903168 -0.000704518903168 0.000704518903168
1 5.40743837268 16.2111347653 10.808920555 243.828760163 -386.531969952 -107.935992637 -0.000704518903168 -0.000704518903168 0.000704518903168
1 5.40592377253 2.70326164831 13.5141746282 92.3687460306 76.1563241784 167.471321138 -0.000704518903168 -0.000704518903168 0.000704518903168
1 8.10768743622 2.70204147596 10.8093613333 18.7521281015 -45.8609099198 -63.8581609374 0.000704518903168 -0.000704518903168 0.000704518903168
1 8.11517623406 16.2136856955 13.513500855 767.631907062 -131.438955328 100.094010224 0.000704518903168 -0.000704518903168 0.000704518903168
1 5.40633251762 5.40486993154 0.00176270711838 133.243255244 -13.0153520174 176.262204337 -0.000704518903168 -0.000704518903168 -0.000704518903168
1 5.40069372201 8.10651557825 2.7014324986 -430.636302507 -98.4336682336 -106.758646102 -0.000704518903168 0.000704518903168 -0.000704518903168
1 8.10908706056 8.10885693949 0.000533451226898 158.714561139 135.70245491 53.3366159749 0.000704518903168 0.000704518903168 -0.000704518903168
1 8.10680360975 5.40414761784 2.70142077437 -69.6305178142 -85.2467219565 -107.93106906 0.000704518903168 -0.000704518903168 -0.000704518903168
1 5.40679901583 5.40218024463 5.40931333024 179.893075407 -281.984041096 431.324515174 -0.000704518903168 -0.000704518903168 -0.000704518903168
1 5.40348198545 8.10677268587 8.10696100193 -151.809959988 -72.7229066182 -53.8913003182 -0.000704518903168 0.000704518903168 0.000704518903168
1 8.10568678978 8.10741231185 5.40288458414 -181.312514114 -8.7603082082 -211.550091486 0.000704518903168 0.000704518903168 -0.000704518903168
1 8.10283576414 5.40495193789 8.10794656946 -466.415076685 -4.81471738922 44.6654524536 0.000704518903168 -0.000704518903168 0.000704518903168
1 5.40485129427 5.40688920216 10.8106232472 -14.8790791682 188.911708039 62.3332281558 -0.000704518903168 -0.000704518903168 0.000704518903168
1 5.40653820726 8.11167985226 13.5144598381 153.812218711 417.993729437 195.992311935 -0.000704518903168 0.000704518903168 0.000704518903168
1 8.10758116543 8.10943746618 10.8059673827 8.12504913152 193.755123586 -403.253218414 0.000704518903168 0.000704518903168 0.000704518903168
1 8.10887958085 5.40525449661 13.50978849 137.966590588 25.4411545951 -271.142492684 0.000704518903168 -0.000704518903168 0.000704518903168
1 5.40457453856 10.8121157101 0.00195581953945 -42.5546498882 211.579510321 195.57344632 -0.000704518903168 0.000704518903168 -0.000704518903168
1 5.40648876307 13.5098101329 2.70188351257 148.867799765 -268.978206312 -61.6572490195 -0.000704518903168 0.000704518903168 -0.000704518903168
1 8.10696510241 13.511084974 16.2131177171 -53.481252456 -141.494092878 -188.236799886 0.000704518903168 0.000704518903168 -0.000704518903168
1 8.10491373784 10.8091146499 2.70288351746 -258.617707507 -88.5265061814 38.3432388914 0.000704518903168 0.000704518903168 -0.000704518903168
1 5.40664351661 10.8107121277 5.40694198018 164.343153157 71.2212720523 194.189509945 -0.000704518903168 0.000704518903168 -0.000704518903168
1 5.40428888369 13.5112141747 8.11077711219 -71.1201365402 -128.574027359 327.719722811 -0.000704518903168 0.000704518903168 0.000704518903168
1 8.10645832436 13.515595488 5.4049003382 -104.159057088 309.557305842 -9.97468659263 0.000704518903168 0.000704518903168 -0.000704518903168
1 8.11121315174 10.8136978162 8.1052239076 371.323677972 369.790123132 -227.600732506 0.000704518903168 0.000704518903168 0.000704518903168
1 5.40469326582 10.8123091865 10.8119061941 -30.6819237876 230.927154438 190.627917345 -0.000704518903168 0.000704518903168 0.000704518903168
1 5.40483935067 13.5148680282 13.5137197762 -16.0734394685 236.811323525 121.986123902 -0.000704518903168 0.000704518903168 0.000704518903168
1 8.11003078312 13.5156450372 10.8109675978 253.086816374 314.512224804 96.768285397 0.000704518903168 0.000704518903168 0.000704518903168
1 8.10259641925 10.8133441659 13.5159769095 -490.349565507 334.425090102 347.6994565 0.000704518903168 0.000704518903168 0.000704518903168
1 10.8168476086 0.00328685232235 16.2137795121 684.769361881 328.676723758 -122.05729861 0.000704518903168 -0.000704518903168 -0.000704518903168
1 10.809693761 2.70751344686 2.70062737041 -30.6153970321 501.336176108 -187.271464657 0.000704518903168 -0.000704518903168 -0.000704518903168
1 13.5140816435 2.69851775653 16.2133651123 158.172856056 -398.232851046 -163.497280181 0.000704518903168 -0.000704518903168 -0.000704518903168
1 13.5128043566 16.2147215174 2.70564245453 30.4441616732 -27.8567630293 314.236944136 0.000704518903168 -0.000704518903168 -0.000704518903168
1 10.8087112454 0.00604466528717 5.40717431639 -128.866956629 604.458018475 217.423131056 0.000704518903168 -0.000704518903168 -0.000704518903168
1 10.8111904573 2.69914408785 8.10692140167 119.05423334 -335.59971971 -57.8513262091 0.000704518903168 -0.000704518903168 0.000704518903168
1 13.5127759585 2.70436236865 5.40423399199 27.604353533 186.228357106 -76.6093064126 0.000704518903168 -0.000704518903168 -0.000704518903168
1 13.5092429298 16.2143022264 8.11327098826 -325.698511595 -69.7858648729 577.107328808 0.000704518903168 -0.000704518903168 0.000704518903168
1 10.8087391745 16.2149381675 10.8083673928 -126.07403989 -6.19176029833 -163.252211062 0.000704518903168 -0.000704518903168 0.000704518903168
1 10.8123348156 2.69932107774 13.5155997527 233.490063205 -317.900730052 309.983771817 0.000704518903168 -0.000704518903168 0.000704518903168
1 13.508731515 2.702797491 10.8140949855 -376.839990575 29.7405938391 409.507052623 0.000704518903168 -0.000704518903168 0.000704518903168
1 13.5137902561 16.211417015 13.5105435076 129.034120268 -358.307002402 -195.640730127 0.000704518903168 -0.000704518903168 0.000704518903168
1 10.806966732 5.40548814165 16.2130547016 -303.318288038 48.8056585735 -194.538349986 0.000704518903168 -0.000704518903168 -0.000704518903168
1 10.8115246872 8.11040052855 2.69745892345 152.477223725 290.061359907 -504.116158182 0.000704518903168 0.000704518903168 -0.000704518903168
1 13.5115960351 8.10631755399 16.2114036056 -90.3879819705 -118.236093892 -359.647946606 0.000704518903168 0.000704518903168 -0.000704518903168
1 13.5111765207 5.40410788141 2.70134229655 -132.339422871 -89.2203650125 -115.778850513 0.000704518903168 -0.000704518903168 -0.000704518903168
1 10.807661018 5.40639344967 5.40658113699 -233.889695645 139.33645932 158.105191274 0.000704518903168 -0.000704518903168 -0.000704518903168
1 10.8101365731 8.10930829928 8.11017682846 13.6658191966 180.838433681 267.691350853 0.000704518903168 0.000704518903168 0.000704518903168
1 13.5113237707 8.110186837 5.40612670933 -117.614421096 268.692204637 112.662426343 0.000704518903168 0.000704518903168 -0.000704518903168
1 13.513354414 5.40637415131 8.10482534266 85.4499101975 137.406623836 -267.457225484 0.000704518903168 -0.000704518903168 0.000704518903168
1 10.8060070178 5.39976463018 10.8079209176 -399.289713705 -523.545485201 -207.899732952 0.000704518903168 -0.000704518903168 0.000704518903168
1 10.8110798024 8.11310064475 13.5113700412 107.988749657 560.072977871 -112.987368611 0.000704518903168 0.000704518903168 0.000704518903168
1 13.5136861961 8.10858005196 10.8031506909 118.628115002 108.013701451 -684.922402035 0.000704518903168 0.000704518903168 0.000704518903168
1 13.51201204 5.40540183926 13.5136916639 -48.787492848 40.1754198624 119.174891322 0.000704518903168 -0.000704518903168 0.000704518903168
1 10.8072863357 10.8103879124 16.2142161033 -271.357926822 38.7997415998 -78.3981766068 0.000704518903168 0.000704518903168 -0.000704518903168
1 10.8119963477 13.5113683769 2.70458315624 199.643275542 -113.153802245 208.307116343 0.000704518903168 0.000704518903168 -0.000704518903168
1 13.5124984376 13.5101829952 16.2135482624 -0.147734417135 -231.691970091 -145.182262565 0.000704518903168 0.000704518903168 -0.000704518903168
1 13.5130017012 10.8070464665 2.70278117963 50.1786225891 -295.344836888 28.1094566602 0.000704518903168 0.000704518903168 -0.000704518903168
1 10.8131384017 10.8125032466 5.40786389309 313.848676215 250.333168271 286.380800737 0.000704518903168 0.000704518903168 -0.000704518903168
1 10.8043279991 13.5163892354 8.11223930645 -567.19157659 388.932040794 473.939148323 0.000704518903168 0.000704518903168 0.000704518903168
1 13.5123828795 13.5142417031 5.40607621887 -11.7035404243 174.178818614 107.613380006 0.000704518903168 0.000704518903168 -0.000704518903168
1 13.5144729823 10.8102272378 8.11085682128 197.306735052 22.7322911662 335.690632423 0.000704518903168 0.000704518903168 0.000704518903168
1 10.8090696992 10.8072771602 10.8088342759 -93.0215704549 -272.275471212 -116.563902335 0.000704518903168 0.000704518903168 0.000704518903168
1 10.8078700198 13.5134685251 13.5123805672 -212.989514859 96.8610167654 -11.9347765649 0.000704518903168 0.000704518903168 0.000704518903168
1 13.5148259391 13.5090005775 10.8079416037 232.602413211 -349.933738026 -205.831127027 0.000704518903168 0.000704518903168 0.000704518903168
1 13.5158313762 10.8106774478 13.5103511438 333.146125693 67.7532834758 -214.877110225 0.000704518903168 0.000704518903168 0.000704518903168
108
Atom. timestep:0.1
1 0.147268196735 0.0951701456806 16.0802329894 117.390083765 43.7759757913 -103.053671114 -0.0335969516843 -0.0705792715704 0.0333661072267
1 16.1971741026 2.97042097293 3.19996749664 -57.0880176748 241.061150374 379.115008226 -0.0613918195181 -0.0224518682617 -0.150185746229
1 2.70766501189 2.42428716425 16.1207783327 -3.81588296081 -210.376770345 -112.301701351 -0.0024627117404 0.0840409122471 -0.0261539802562
1 2.82232906594 16.1880973644 2.46679385974 68.686749875 -47.9767317141 -166.881795309 -0.0773949477701 -0.0296995739598 0.0962050591825
1 0.0341478576487 16.1840001841 5.51839647156 42.9340806918 -23.2251539491 134.737935844 0.0120443712753 0.00887170307748 0.0229012067351
1 16.0937889943 3.27640451693 8.15787613643 -140.758913557 410.295687001 44.4878119508 -0.0187598448552 -0.206339690718 -0.00161568586117
1 2.62078582405 2.63137791574 5.13978407212 -7.64346845788 -70.8674737569 -203.88592805 0.109388718236 -0.00296767070127 0.0808922559753
1 2.92563036041 15.5917741224 8.23034616799 181.159987121 -506.65158187 73.2108013481 -0.0649185333728 0.146465041198 -0.0628752062452
1 16.0795099257 16.1067584027 10.4486265507 -102.482501364 -25.6092229599 -283.404936905 0.0495302149846 0.105461999734 0.100722817729
1 15.9559693556 2.78305163952 13.5579503348 -207.33375685 68.103118941 1.5888851901 0.0682285519923 -0.00965039446036 -0.0606578384576
1 2.69585856694 3.13059922147 10.5120365282 15.4306377143 118.515735295 -38.450599699 0.0267726267137 -0.419418926301 0.367068806698
1 2.34468419137 15.9420645735 13.294952797 -302.993064962 -209.795123826 -231.563591869 0.0668929790468 0.0757556382646 -0.018866351157
1 15.8628130619 5.55755128548 16.1513310118 -288.056693558 108.844644148 -42.5426378517 0.0786802280671 -0.0523471032979 0.02767895643
1 15.5984738823 8.02121922548 2.69168517696 -496.234179395 -135.928193521 -11.9326468937 0.15396943622 -0.0815189899122 -0.00260845177393
1 2.68491990408 8.14705211624 0.10567149977 -58.5991237067 60.2851921846 51.9441629016 -0.0548722838822 0.0256847142512 -0.0711164004435
1 2.63233265132 5.31087316977 2.31502583292 -90.1141421017 -97.8215568944 -348.648591279 -0.024800751214 -0.0121230438176 0.0353586822381
1 0.0962940120342 5.55205022453 5.6847818126 106.812169885 169.519105794 190.366675622 0.0176236746731 0.0289557252513 -0.12010975106
1 0.0257685681123 8.25459074238 7.85429672134 14.4920379439 45.2652587611 -134.852243367 -0.023428444051 -0.145097701367 0.166021284524
1 2.63255579175 8.09244768217 5.46657551618 -34.7856475725 -46.0380557154 4.04090404559 0.0449131073225 -0.0374146974606 -0.0716454882778
1 2.7229020273 5.21327586403 8.3093096203 33.6905234791 118.808034995 -56.3894102507 0.0180179476679 0.427672546334 -0.368527934057
1 0.134910615533 5.40845538789 10.7765995096 60.2735902433 79.8576865642 4.51862727976 -0.0874567619236 0.0986185986251 0.0532983989856
1 0.0140938018657 8.00299525358 13.4714224896 10.0892994942 -97.7482363246 -22.3952778333 -0.00514282433792 0.00146706914926 0.0232217996327
1 2.74774433552 8.53300647047 11.2118228469 55.6772978978 343.655584322 340.44574814 0.0178117975479 -0.104829038684 -0.0752074160413
1 2.53898788826 5.26450777575 13.3887296662 -134.258755209 -121.494339399 -77.4012997392 0.0325966065666 0.0191446631216 0.0547964428861
1 0.0116067906923 11.1848099593 0.464318733631 5.96159964146 298.221816734 366.580901593 -0.0153076654482 -0.0928916949515 -0.123858339353
1 16.0594029223 13.719537928 2.72966901722 -147.697350891 219.744109577 45.5143436495 0.00881718056266 0.0258619282317 0.0303035736057
1 2.85947736858 13.351568998 15.8586670572 106.405460021 -95.0068202288 -277.541775996 -0.0703045832409 0.0843058174635 0.105650529582
1 2.61988859991 11.1772907422 2.61326520339 -64.6480971661 254.011147676 -114.230401586 0.0327255878443 -0.158643621473 -0.0608174188352
1 16.1804377374 10.5266415913 5.55432603807 -37.7750225122 -157.158375242 52.019789994 -0.00353325512009 0.173213322635 -0.144090608732
1 16.203609128 13.5529374775 8.27503379844 -32.2941426767 -24.2145493176 40.0283981537 -0.0357309297979 -0.0817997717973 -0.180478428734
1 2.71761997534 13.3166197884 5.02039259374 12.9184648319 -117.428448208 -269.021087425 4.61978715698e-05 0.124056509915 0.168395019158
1 2.63101979307 10.4317405669 8.02598236374 -42.8925048868 -279.357006758 -39.1735142055 0.0418971360013 0.123906654392 0.0553695519206
1 15.9178704567 10.5271235674 10.998847013 -111.865590276 -257.511466841 90.7165405666 0.26199313796 0.0175614201054 -0.148924790626
1 16.089499678 13.5731573596 13.5232721567 -113.245663624 17.024173631 17.3029731073 0.0206695337923 -0.0683945064136 0.0144607891419
1 2.18917466369 13.3693963939 10.7736534112 -444.22006046 -141.845992568 -40.96654414 0.0797816877565 0.015844096775 -0.0161995525532
1 2.59255491999 11.2264534481 13.2190810927 -106.357724518 350.35738408 -194.919557967 0.00786493319149 -0.0873917586857 0.1348698137
1 5.33627670926 0.0985247644881 0.287622582295 -1.195391345 53.4333947373 213.151293616 0.098960063744 -0.05392704278 -0.0952465689091
1 5.58971872268 2.99496625951 2.32222177097 114.270893035 201.390195761 -246.54688439 -0.0968767679145 -0.132552926731 0.17573294302
1 8.15483194286 2.57501786178 0.120076480098 80.4770073946 -141.27762893 67.4326175389 0.046617824018 -0.0202332433436 -0.0652301989679
1 7.93101686889 0.0116748920209 3.01079296035 -113.147875311 -10.8112060461 155.800260221 0.0797325816569 -0.0290271682511 -0.209905381896
1 5.4537586697 16.0823767503 5.24256893279 -44.0255344886 -106.592592401 -104.588864091 -0.132420597242 0.0328494111189 0.0765787036504
1 5.13261785796 2.82439441591 7.88702742178 -232.312709505 -51.631168842 -124.494340875 0.0354581719425 -0.241546119558 0.139425844389
1 8.20241178442 2.32030668451 5.3715324533 -70.529698629 -171.915808498 10.3695026059 -0.247600742853 0.289462746781 0.0606711547896
1 8.11539440427 16.2058042235 8.43592145036 -92.451444724 87.030147115 211.679867647 -0.135456532957 0.140047621851 -0.154291124426
1 5.62303180351 15.8625905598 10.7299130208 148.321728352 -267.743909623 -15.5205932604 -0.0985736926369 0.106127605579 0.0839662922539
1 5.49724238649 2.76718523324 13.6694645731 90.6542916691 47.9470933635 135.513738433 0.000357659032194 -0.0131409509162 -0.0201276774023
1 8.09919450756 2.63808167188 10.754748674 -81.2659269309 -113.013801482 -33.0607799071 -0.112824471549 -0.0752687324817 0.0326735267351
1 8.80615178856 16.1216843868 13.623760711 507.708414391 17.8640243865 137.257724875 -0.256040605066 0.163824174287 0.0424956081518
1 5.53538106786 5.41663932326 0.128967395032 119.730794624 80.3688391471 13.6245797986 -0.012705244119 0.106633867678 -0.155687086896
1 4.99553479366 8.01777052546 2.61549491126 -348.411120158 -66.8913830128 -39.646518186 0.0758886828955 0.0275105876776 0.0623556640151
1 8.24219224436 8.23549120124 0.0450143794159 76.4199931562 107.060903864 23.7368018163 -0.0748266085785 -0.0250511263835 -0.0281448023546
1 8.04699364347 5.34603091879 2.61136807711 -34.9702540652 2.46906248323 -53.1910335692 0.0353437019034 0.0810783637068 0.0458423200444
1 5.5571880791 5.1540770732 5.75863416828 80.0614698534 -151.511207198 135.10101377 -0.0968701845671 0.147478193733 -0.316187389767
1 5.25430305641 8.04409345505 8.05990134779 -143.646788468 -48.1403128928 -35.7135346281 0.00898570570212 0.0126120392573 0.0109796344713
1 7.9338984528 8.09893972783 5.20025316044 -159.032960983 -12.6546645899 -184.515039775 0.00998639372492 -0.00971080499334 0.0230296389881
1 7.68724091251 5.39632303305 8.16648261945 -293.585171031 -11.6786599513 114.696443226 0.170049521125 0.000592399454336 0.100067793367
1 5.38991308944 5.59817193336 10.8838324057 -17.6075548663 196.057481867 95.2658970386 -0.00810101798707 0.00493708392888 0.0272157668171
1 5.54490027513 8.50027867405 13.7075346471 100.227477038 322.752228351 185.848242991 -0.0571949658669 -0.0928789969917 -0.0107857084263
1 8.09555859831 8.29818560926 10.4292909559 -62.389601307 174.211017211 -325.778184315 -0.0720473530585 -0.0201943453291 0.0605414647452
1 8.2364856367 5.43783305616 13.2536359178 102.455281958 46.6242787759 -226.849439855 -0.0348173923792 0.0171062731473 0.0341630770426
1 5.3520030618 10.9944229602 0.184680305883 -72.691624026 111.639956999 154.302380593 -0.0248083084545 -0.10014545312 -0.0396559126533
1 5.54837224372 13.2736028412 2.64809637346 126.81484231 -155.846573885 -26.1325486296 -0.0202892122379 0.116054823883 0.049296724911
1 8.06127910561 13.4132031387 16.0706737763 -31.0987442494 7.86792512093 -33.9597802386 0.0206463461802 0.153331295403 0.152336229624
1 7.87082128979 10.7216265473 2.74532391066 -182.360985158 -91.7538714888 46.8606825504 0.0669998127359 -0.0122113621255 0.00187598904423
1 5.55840244836 10.8790967129 5.59558510761 127.486135958 65.739354845 180.62769522 -0.0287713417919 -0.000605028980481 -0.0075250498827
1 5.35136852448 13.3602344948 8.41201567887 0.544025731261 -212.762318376 242.452008447 0.0860860767095 -0.0937386855585 -0.0793316456027
1 8.02051514349 13.8031808545 5.40741623309 -44.7050144916 232.600594428 35.1748445394 0.0557878395562 -0.0792750978612 0.0484706366998
1 8.44582358464 11.1583123858 7.8881623668 255.911853679 285.481961821 -196.973931314 -0.102913996467 -0.0834692621907 0.0240674014158
1 5.38436028394 11.0407291318 10.988865856 -0.562480851519 218.704420741 157.364806468 0.0227833426969 -0.0191467629035 -0.0135036863874
1 5.39242710316 13.7619974928 13.6206004586 -1.38334871686 271.268529568 74.0843238047 0.017976691059 0.0344580028198 -0.0427090850016
1 8.31252333933 13.7797760549 10.9487715935 67.8506496423 150.722633317 258.913584017 -0.189393307258 -0.147469320752 0.182963490913
1 7.65080103049 11.1237085893 13.8179770109 -366.563395723 249.176442561 192.222140097 0.113752557584 -0.0879881392037 -0.156570074828
1 11.4405170371 0.249602473238 16.1395072783 460.60217289 13.7273817352 42.0238026909 -0.246630893483 -0.358006792439 0.163425313185
1 10.7816903687 3.17188679702 2.52527120983 -28.7533471646 382.901126862 -149.142126637 -0.0107111925079 -0.110543217445 0.0339606889123
1 13.7092009 2.36200526167 16.0771168452 317.053019221 -164.187300371 -76.2841029907 0.197407128649 0.264724196714 0.0799202581917
1 13.5379063811 16.2015953969 3.00444715082 11.4007720882 19.6535062506 269.514052756 -0.0201004708725 0.0440654345719 -0.0345915512147
1 10.7334496612 0.513741978618 5.58287564561 82.942928848 248.592020004 54.7574034481 0.23778945993 -0.370716460913 -0.187365324229
1 10.9215154148 2.42630134239 8.08131486948 94.4659960826 -114.81508364 77.5972352001 -0.0168927454148 0.221744751388 0.164782701262
1 13.5296255558 2.88559861181 5.34250299222 -11.1728212844 173.13355173 -29.4216283786 -0.0432673904418 -0.00875425715318 0.0436642283049
1 13.2140328258 16.1435678317 8.6394860786 -221.570779209 -82.2106480148 411.273259872 0.108012473731 -0.0233553355409 -0.157901619154
1 10.700335194 0.023547844983 10.70633649 -81.6847948831 111.32901012 56.1656931077 0.013888039912 0.130816900521 0.22716225919
1 11.02915384 2.42904171567 13.7934848535 178.415583726 -144.076367645 200.423836668 -0.0524212010192 0.186304640095 -0.0992799150254
1 13.1602699385 2.73183887048 11.1958114642 -286.740899501 23.7405328308 320.312702562 0.0840820964848 -0.00869133902407 -0.0862436013668
1 13.6340234023 15.8648575981 13.3061566852 91.0517198811 -310.99648238 -221.025045223 -0.0531998168251 0.0605883104835 -0.0183793899093
1 10.5210539828 5.45652740826 16.0146165083 -252.820076297 56.9250056411 -205.449781987 0.0391052103139 0.0080418891622 -0.00713536392008
1 10.9546006033 8.37304931028 2.23248522756 124.158164144 199.387139275 -386.452429685 -0.0234342432383 -0.0870795154348 0.0970836878021
1 13.4179342636 8.01573175696 15.866117806 -102.259836698 -28.6898044962 -310.824884551 -0.0122171774185 0.0839690463998 0.0486292725333
1 13.3773029999 5.32814243694 2.58957448878 -129.536603391 -47.5603825124 -106.436652282 0.0158793708308 0.0377391290341 0.00467019695285
1 10.5765502115 5.54334390388 5.56158616916 -225.126490248 129.169160965 150.642456977 0.00741833275815 -0.0120798645153 -0.00402723888193
1 10.813979113 8.26280088746 8.32961422804 -16.5598599245 89.8766569999 102.184450095 -0.0260318537575 -0.0873626411444 -0.164182543419
1 13.3811901347 8.35409797906 5.52182658277 -154.463704253 193.482390193 125.771729324 -0.0269106557995 -0.0620880557596 0.0144791805581
1 13.5708551492 5.54351725743 7.8542112492 -7.8770075531 142.358764117 -222.748880252 -0.090794982567 0.00999374147111 0.0260483388302
1 10.4412005606 4.9201712088 10.5984825059 -282.933835896 -379.407686117 -220.917043963 0.119201112597 0.142089849411 -0.0205743928165
1 10.9075568607 8.63833453115 13.3977736966 73.6145681318 451.110606898 -97.2595235921 -0.0270543889721 -0.0977934237257 0.0402162856974
1 13.6250939831 8.16457749564 10.1846418241 99.6669047155 -72.5223406453 -469.740098957 -0.0120839453381 -0.178322236644 0.196041277281
1 13.4463041005 5.44365739065 13.6065713714 -99.0225155039 24.9871567305 37.8422700525 -0.040507227963 -0.0261182352816 -0.0718692860246
1 10.5581497811 10.870197027 16.1335642594 -206.640722012 110.137462358 -87.1192704075 0.0492579912735 0.0697811652129 -0.0103533713362
1 10.9980970278 13.4059368076 2.89953207732 162.150279873 -93.6111972174 168.763806091 -0.0262650079556 0.0118174599605 -0.0313800943692
1 13.5001816525 13.2925111707 16.0794721404 -41.6553533701 -189.603913772 -114.103425239 -0.0398870281035 0.0340860109866 0.0224542491796
1 13.5460801036 10.5604408223 2.72960898287 -11.7726218659 -125.085195152 25.750948734 -0.066235022879 0.178090565651 0.0016035636094
1 11.1142712452 11.0575952874 5.68436383539 282.370367485 236.803575373 256.965167236 -0.0168704084652 -0.00846099088382 -0.0252277480363
1 10.3271790901 13.8603189301 8.51272796361 -244.978833723 221.645388926 202.896707372 0.331133972612 -0.178282265069 -0.287679191501
1 13.5040696463 13.6832237261 5.53257117725 3.28981367217 160.481698944 161.981378151 0.0184140955989 -0.0074052102499 0.0415912430001
1 13.6925744295 10.8520380092 8.38203971428 139.012660211 81.2278808087 102.441278989 -0.047621584047 0.0421642787963 -0.247330130068
1 10.7239741456 10.5901320626 10.7058962612 -64.6802786918 -86.2437011172 -82.2801566133 0.0279693046218 0.183118908343 0.0154629652445