2
Atom. timestep:1000
1 0.68621924  4.58665471  4.1107238 
1 0.63204117  2.5958107   4.26901681
2
Atom. timestep:2000
1 0.67599261  4.59133864  4.11167682
1 0.62108663  2.58699904  4.25792996
2
Atom. timestep:3000
1 0.66576594  4.59602058  4.11263016
1 0.61013214  2.57818937  4.24684279
2
Atom. timestep:4000
1 0.65553921  4.60070068  4.11358377
1 0.5991777   2.56938154  4.23575535
2
Atom. timestep:5000
1 0.64531245  4.60537907  4.11453762
1 0.58822329  2.56057541  4.22466766
2
Atom. timestep:6000
1 0.63508564  4.61005588  4.11549169
1 0.57726893  2.55177087  4.21357976
2
Atom. timestep:7000
1 0.6248588   4.61473122  4.11644595
1 0.56631461  2.54296779  4.20249167
2
Atom. timestep:8000
1 0.61463192  4.6194052   4.11740037
1 0.55536032  2.53416608  4.19140342
2
Atom. timestep:9000
1 0.604405    4.62407792  4.11835493
1 0.54440607  2.52536562  4.18031502
2
Atom. timestep:10000
1 0.59417806  4.62874947  4.11930962
1 0.53345184  2.51656634  4.1692265 
2
Atom. timestep:11000
1 0.58395108  4.63341994  4.12026441
1 0.52249765  2.50776813  4.15813787
2
Atom. timestep:12000
1 0.57372408  4.63808941  4.1212193 
1 0.51154348  2.49897093  4.14704915
2
Atom. timestep:13000
1 0.56349706  4.64275795  4.12217427
1 0.50058934  2.49017466  4.13596035
2
Atom. timestep:14000
1 0.55327001  4.64742562  4.12312931
1 0.48963522  2.48137925  4.12487147
2
Atom. timestep:15000
1 0.54304294  4.6520925   4.12408441
1 0.47868112  2.47258464  4.11378255
2
Atom. timestep:16000
1 0.53281585  4.65675865  4.12503955
1 0.46772705  2.46379076  4.10269357
2
Atom. timestep:17000
1 0.52258874  4.66142411  4.12599474
1 0.45677299  2.45499757  4.09160455
2
Atom. timestep:18000
1 0.51236161  4.66608893  4.12694996
1 0.44581895  2.44620501  4.0805155 
2
Atom. timestep:19000
1 0.50213447  4.67075317  4.1279052 
1 0.43486492  2.43741303  4.06942642
2
Atom. timestep:20000
1 0.49190731  4.67541687  4.12886047
1 0.42391091  2.4286216   4.05833731
2
Atom. timestep:21000
1 0.48168014  4.68008007  4.12981576
1 0.41295692  2.41983067  4.04724819
2
Atom. timestep:22000
1 0.47145295  4.6847428   4.13077106
1 0.40200294  2.4110402   4.03615906
2
Atom. timestep:23000
1 0.46122575  4.6894051   4.13172638
1 0.39104897  2.40225017  4.02506991
2
Atom. timestep:24000
1 0.45099854  4.694067    4.1326817 
1 0.38009501  2.39346053  4.01398076
2
Atom. timestep:25000
1 0.44077132  4.69872854  4.13363702
1 0.36914107  2.38467126  4.0028916 
2
Atom. timestep:26000
1 0.43054409  4.70338973  4.13459235
1 0.35818713  2.37588233  3.99180244
2
Atom. timestep:27000
1 0.42031685  4.70805061  4.13554767
1 0.3472332   2.36709372  3.98071328
2
Atom. timestep:28000
1 0.4100896  4.7127112  4.136503 
1 0.33627928  2.3583054   3.96962412
2
Atom. timestep:29000
1 0.39986234  4.71737151  4.13745832
1 0.32532537  2.34951735  3.95853497
2
Atom. timestep:30000
1 0.38963508  4.72203158  4.13841364
1 0.31437147  2.34072955  3.94744582
2
Atom. timestep:31000
1 0.3794078   4.72669141  4.13936895
1 0.30341757  2.33194199  3.93635667
2
Atom. timestep:32000
1 0.36918053  4.73135103  4.14032426
1 0.29246368  2.32315463  3.92526753
2
Atom. timestep:33000
1 0.35895324  4.73601045  4.14127956
1 0.2815098   2.31436748  3.91417839
2
Atom. timestep:34000
1 0.34872595  4.74066969  4.14223486
1 0.27055592  2.30558051  3.90308927
2
Atom. timestep:35000
1 0.33849866  4.74532875  4.14319014
1 0.25960205  2.29679371  3.89200015
2
Atom. timestep:36000
1 0.32827136  4.74998766  4.14414542
1 0.24864818  2.28800707  3.88091103
2
Atom. timestep:37000
1 0.31804405  4.75464642  4.1451007 
1 0.23769432  2.27922057  3.86982193
2
Atom. timestep:38000
1 0.30781674  4.75930505  4.14605596
1 0.22674046  2.27043421  3.85873283
2
Atom. timestep:39000
1 0.29758943  4.76396356  4.14701122
1 0.2157866   2.26164797  3.84764373
2
Atom. timestep:40000
1 0.28736212  4.76862209  4.14796649
1 0.20483275  2.25286171  3.83655463
2
Atom. timestep:41000
1 0.27713481  4.77328071  4.14892178
1 0.19387889  2.24407535  3.82546551
2
Atom. timestep:42000
1 0.26690751  4.77793944  4.14987708
1 0.18292502  2.23528888  3.81437637
2
Atom. timestep:43000
1 0.25668021  4.78259829  4.15083241
1 0.17197116  2.2265023   3.80328721
2
Atom. timestep:44000
1 0.24645291  4.78725725  4.15178777
1 0.16101728  2.21771561  3.79219803
2
Atom. timestep:45000
1 0.23622562  4.79191633  4.15274314
1 0.15006341  2.20892879  3.78110882
2
Atom. timestep:46000
1 0.22599833  4.79657555  4.15369855
1 0.13910953  2.20014184  3.77001958
2
Atom. timestep:47000
1 0.21577105  4.80123491  4.15465398
1 0.12815564  2.19135475  3.75893031
2
Atom. timestep:48000
1 0.20554377  4.80589441  4.15560945
1 0.11720175  2.18256751  3.74784101
2
Atom. timestep:49000
1 0.1953165   4.81055407  4.15656495
1 0.10624785  2.17378012  3.73675167
2
Atom. timestep:50000
1 0.18508924  4.81521389  4.15752049
1 0.09529395  2.16499256  3.7256623 
2
Atom. timestep:51000
1 0.17486198  4.81987388  4.15847607
1 0.08434004  2.15620484  3.71457289
2
Atom. timestep:52000
1 0.16463472  4.82453406  4.15943169
1 0.07338613  2.14741693  3.70348344
2
Atom. timestep:53000
1 0.15440748  4.82919442  4.16038735
1 0.06243221  2.13862883  3.69239394
2
Atom. timestep:54000
1 0.14418024  4.83385499  4.16134306
1 0.05147828  2.12984053  3.6813044 
2
Atom. timestep:55000
1 0.13395301  4.83851577  4.16229882
1 0.04052434  2.12105201  3.67021481
2
Atom. timestep:56000
1 0.12372578  4.84317678  4.16325464
1 0.0295704   2.11226327  3.65912516
2
Atom. timestep:57000
1 0.11349857  4.84783802  4.16421051
1 0.01861645  2.1034743   3.64803545
2
Atom. timestep:58000
1 0.10327136  4.8524995   4.16516645
1 0.00766248  2.09468508  3.63694568
2
Atom. timestep:59000
1 0.09304282  4.85716052  4.16612231
1 4.99670986  2.08589633  3.62585599
2
Atom. timestep:60000
1 0.08281099  4.86182001  4.16707788
1 4.98576052  2.07710911  3.61476658
2
Atom. timestep:61000
1 0.07257891  4.86647965  4.1680335 
1 4.97481143  2.06832173  3.60367713
2
Atom. timestep:62000
1 0.06234657  4.87113946  4.16898915
1 4.96386261  2.05953418  3.59258764
2
Atom. timestep:63000
1 0.05211395  4.87579944  4.16994485
1 4.95291406  2.05074647  3.58149811
2
Atom. timestep:64000
1 0.04188105  4.8804596   4.1709006 
1 4.94196579  2.04195858  3.57040853
2
Atom. timestep:65000
1 0.03164784  4.88511995  4.1718564 
1 4.93101783  2.03317049  3.55931889
2
Atom. timestep:66000
1 0.02141433  4.8897805   4.17281226
1 4.92007018  2.02438221  3.54822921
2
Atom. timestep:67000
1 0.01118049  4.89444126  4.17376817
1 4.90912285  2.01559372  3.53713946
2
Atom. timestep:68000
1  9.46300483e-04   4.89910224e+00   4.17472414e+00
1 4.89817587  2.006805    3.52604966
2
Atom. timestep:69000
1 4.99071855  4.90376703  4.17568098
1 4.88722245  1.99801248  3.51495898
2
Atom. timestep:70000
1 4.98049149  4.9084326   4.17663803
1 4.87626834  1.98921917  3.5038681 
2
Atom. timestep:71000
1 4.97026446  4.91309863  4.17759521
1 4.86531421  1.98042541  3.49277709
2
Atom. timestep:72000
1 4.96003744  4.91776513  4.17855253
1 4.85436006  1.97163118  3.48168593
2
Atom. timestep:73000
1 4.94981043  4.92243211  4.17950999
1 4.8434059   1.96283646  3.47059464
2
Atom. timestep:74000
1 4.93958345  4.9270996   4.18046761
1 4.83245171  1.95404124  3.45950319
2
Atom. timestep:75000
1 4.92935649  4.93176762  4.18142538
1 4.82149751  1.94524549  3.44841158
2
Atom. timestep:76000
1 4.91912954  4.93643619  4.18238333
1 4.81054328  1.93644919  3.43731981
2
Atom. timestep:77000
1 4.90890262  4.94110532  4.18334144
1 4.79958904  1.92765232  3.42622785
2
Atom. timestep:78000
1 4.89867572  4.94577504  4.18429975
1 4.78863477  1.91885486  3.41513572
2
Atom. timestep:79000
1 4.88844885  4.95044538  4.18525824
1 4.77768048  1.91005679  3.40404339
2
Atom. timestep:80000
1 4.87822199  4.95511635  4.18621694
1 4.76672616  1.90125809  3.39295086
2
Atom. timestep:81000
1 4.86799517  4.95978797  4.18717584
1 4.75577182  1.89245874  3.38185812
2
Atom. timestep:82000
1 4.85776837  4.96446026  4.18813497
1 4.74481745  1.88365871  3.37076517
2
Atom. timestep:83000
1 4.84754159  4.96913325  4.18909432
1 4.73386306  1.87485799  3.35967198
2
Atom. timestep:84000
1 4.83731485  4.97380695  4.19005391
1 4.72290864  1.86605655  3.34857856
2
Atom. timestep:85000
1 4.82708813  4.9784814   4.19101374
1 4.71195419  1.85725437  3.33748489
2
Atom. timestep:86000
1 4.81686144  4.9831566   4.19197383
1 4.70099971  1.84845144  3.32639097
2
Atom. timestep:87000
1 4.80663478  4.98783257  4.19293418
1 4.6900452   1.83964773  3.31529678
2
Atom. timestep:88000
1 4.79640815  4.99250935  4.19389481
1 4.67909066  1.83084322  3.30420232
2
Atom. timestep:89000
1 4.78618155  4.99718694  4.19485572
1 4.66813609  1.82203789  3.29310758
2
Atom. timestep:90000
1  4.77595519e+00   1.84869640e-03   4.19581848e+00
1 4.65718128  1.8132484   3.28201099
2
Atom. timestep:91000
1 4.7657292   0.00648499  4.19678409
1 4.64622611  1.80448437  3.27091155
2
Atom. timestep:92000
1 4.75550326  0.01112057  4.19775029
1 4.63527088  1.79572106  3.25981151
2
Atom. timestep:93000
1 4.7452774   0.01575543  4.1987171 
1 4.62431557  1.78695846  3.24871087
2
Atom. timestep:94000
1 4.73505161  0.02038957  4.19968454
1 4.6133602   1.7781966   3.23760959
2
Atom. timestep:95000
1 4.72482589  0.02502297  4.20065264
1 4.60240475  1.76943546  3.22650766
2
Atom. timestep:96000
1 4.71460024  0.02965565  4.20162142
1 4.59144923  1.76067504  3.21540505
2
Atom. timestep:97000
1 4.70437467  0.0342876   4.20259088
1 4.58049363  1.75191536  3.20430175
2
Atom. timestep:98000
1 4.69414917  0.03891883  4.20356106
1 4.56953796  1.74315639  3.19319774
2
Atom. timestep:99000
1 4.68392376  0.04354934  4.20453198
1 4.55858221  1.73439815  3.18209299
