108
Atom. timestep:0.0
1 0.00194533035765 0.00278172248648 0.000284058347029 194.524528146 278.163740494 28.3973281476 -0.000704518903168 -0.000704518903168 -0.000704518903168
1 16.2118101276 2.69920409982 2.70117374001 -318.995745853 -329.598522038 -132.634504277 -0.000704518903168 -0.000704518903168 -0.000704518903168
1 2.70083284137 2.70373854865 16.210615211 -166.724368794 123.846358074 -438.487406528 -0.000704518903168 -0.000704518903168 -0.000704518903168
1 2.70419823161 0.00420459326426 2.70231572012 169.814653842 420.450817361 -18.4364939236 -0.000704518903168 -0.000704518903168 -0.000704518903168
1 16.2141204855 0.00246799676007 5.40483599472 -87.9599517837 246.791168054 -16.4090346029 -0.000704518903168 -0.000704518903168 -0.000704518903168
1 16.2133416495 2.70363270538 8.10472457557 -165.843553382 113.262030492 -277.533934897 -0.000704518903168 -0.000704518903168 0.000704518903168
1 2.70246184987 2.69809227274 5.40339986248 -3.82351948789 -440.78122986 -160.022257475 -0.000704518903168 -0.000704518903168 -0.000704518903168
1 2.70544629519 16.2138760634 8.10918484904 294.621010542 -112.402162935 168.493409695 -0.000704518903168 -0.000704518903168 0.000704518903168
1 16.2146114907 0.000696200009615 10.807230159 -38.8594353921 69.6114941424 -276.975594003 -0.000704518903168 -0.000704518903168 0.000704518903168
1 16.2144530375 2.70426547325 13.5096537714 -54.7047577037 176.538817939 -284.614354158 -0.000704518903168 -0.000704518903168 0.000704518903168
1 2.7014364194 2.70594617847 10.8125294605 -106.366565253 344.609338024 252.954557639 -0.000704518903168 -0.000704518903168 0.000704518903168
1 2.70175134869 16.2149351945 13.5089580674 -74.8736371518 -6.48906071465 -354.184752846 -0.000704518903168 -0.000704518903168 0.000704518903168
1 0.00443058397792 5.40688354547 16.2137569667 443.049888583 188.346039843 -124.311835589 -0.000704518903168 -0.000704518903168 -0.000704518903168
1 16.214634276 8.10917226599 2.70204329466 -36.5809096569 167.235104131 -45.6790404584 -0.000704518903168 0.000704518903168 -0.000704518903168
1 2.70246355493 8.10234575304 0.00106091883273 -3.65301312514 -515.416186188 106.08337622 -0.000704518903168 0.000704518903168 -0.000704518903168
1 2.7055818246 5.40698426518 2.70164227755 308.17395116 198.418010046 -85.7807507461 -0.000704518903168 -0.000704518903168 -0.000704518903168
1 0.00213191891538 5.40360372096 5.40603589428 213.1833838 -139.636409434 103.580920701 -0.000704518903168 -0.000704518903168 -0.000704518903168
1 0.000896648091002 8.10520824085 8.11009883522 89.6563021528 -229.167406795 259.892026839 -0.000704518903168 0.000704518903168 0.000704518903168
1 2.70065739676 8.10509442042 5.40766075571 -184.268829278 -240.549450571 266.067062694 -0.000704518903168 0.000704518903168 -0.000704518903168
1 2.7018285678 5.40532121744 8.10779448774 -67.1517256552 32.1132371717 29.4572803665 -0.000704518903168 -0.000704518903168 0.000704518903168
1 16.2129168438 5.40633430842 10.8124272296 -208.32412428 133.422334383 242.731462273 -0.000704518903168 -0.000704518903168 0.000704518903168
1 16.210639785 8.10622159325 13.5114905419 -436.03000726 -127.832167454 -100.937298522 -0.000704518903168 0.000704518903168 0.000704518903168
1 2.70494709471 8.1056965029 10.8101584908 244.700962745 -180.34120285 15.8575872805 -0.000704518903168 0.000704518903168 0.000704518903168
1 2.70219968899 5.40457495944 13.5148360549 -30.0396076175 -42.5125616386 233.613997277 -0.000704518903168 -0.000704518903168 0.000704518903168
1 0.00318618183002 10.8061760782 0.00118232359915 318.609674589 -382.383674494 118.223852784 -0.000704518903168 0.000704518903168 -0.000704518903168
1 0.00131792727123 13.5105154367 2.70307999372 131.784219906 -198.447825069 57.9908654641 -0.000704518903168 0.000704518903168 -0.000704518903168
1 2.70491751191 13.5125668786 0.00406779780145 241.742682908 6.69637085046 406.771271169 -0.000704518903168 0.000704518903168 -0.000704518903168
1 2.70141828929 10.8102776421 2.70429344854 -108.179576476 27.7727199111 179.336346794 -0.000704518903168 0.000704518903168 -0.000704518903168
1 0.0029190585515 10.8084678839 5.40650732396 291.897346908 -153.203106291 150.723888884 -0.000704518903168 0.000704518903168 -0.000704518903168
1 0.00122372931602 13.5131458756 8.1059814388 122.364424446 64.5960668471 -151.847612932 -0.000704518903168 0.000704518903168 0.000704518903168
1 2.69975938422 13.5120698774 5.40791645356 -274.070083 -43.0037528971 291.636847558 -0.000704518903168 0.000704518903168 -0.000704518903168
1 2.70599041639 10.8084662436 8.10907545296 349.033130609 -153.367137541 157.553801113 -0.000704518903168 0.000704518903168 0.000704518903168
1 16.2134183242 10.8100703646 10.8105707776 -158.176089187 7.04496652543 57.0862661728 -0.000704518903168 0.000704518903168 0.000704518903168
1 0.000754783207223 13.5152173364 13.509014123 75.4698138657 271.742141954 -348.579196185 -0.000704518903168 0.000704518903168 0.000704518903168
1 2.70059995973 13.5115164158 10.8139898155 -190.012532338 -98.3499173333 398.990050365 -0.000704518903168 0.000704518903168 0.000704518903168
1 2.70241455855 10.8130092149 13.5116586196 -8.55265173176 300.929999365 -84.1295332991 -0.000704518903168 0.000704518903168 0.000704518903168
1 5.40716074103 16.2133077066 16.2132926721 216.065594988 -169.23784817 -170.741297135 -0.000704518903168 -0.000704518903168 -0.000704518903168
1 5.40582230033 2.70295808803 2.70382640749 82.2215259158 45.8002965914 132.632241706 -0.000704518903168 -0.000704518903168 -0.000704518903168
1 8.1109052566 2.69942908591 0.00283280559398 340.534164274 -307.099912982 283.272051211 0.000704518903168 -0.000704518903168 -0.000704518903168
1 8.11027275184 16.2134865701 2.70004113248 277.283689083 -151.351494579 -245.895256662 0.000704518903168 -0.000704518903168 -0.000704518903168
1 5.40226720024 16.2120762657 5.40697556185 -273.2884803 -292.381929533 197.547677262 -0.000704518903168 -0.000704518903168 -0.000704518903168
1 5.40636624085 2.7027319073 8.10873360944 136.615578068 23.1822235043 123.369450076 -0.000704518903168 -0.000704518903168 0.000704518903168
1 8.10903772216 2.7016221419 5.40589813845 153.780721654 -87.7943161273 89.8053385159 0.000704518903168 -0.000704518903168 -0.000704518903168
1 8.11293678976 16.2146118459 8.1067327384 543.687478977 -38.823918107 -76.7176531913 0.000704518903168 -0.000704518903168 0.000704518903168
1 5.4055376205 16.2129607053 10.8102549728 53.7535427987 -203.937977025 25.5057880916 -0.000704518903168 -0.000704518903168 0.000704518903168
1 5.40259204552 2.70278745057 13.5166278398 -240.803952536 28.73655012 412.792481551 -0.000704518903168 -0.000704518903168 0.000704518903168
1 8.10735556638 2.70228784304 10.8088545983 -14.4348551859 -21.2242024836 -114.531666173 0.000704518903168 -0.000704518903168 0.000704518903168
1 8.10698099998 3.41115758096e-05 13.5112400026 -51.8914952006 3.40265118559 -125.99123642 0.000704518903168 -0.000704518903168 0.000704518903168
1 5.40650349246 5.40405728606 16.2127177836 150.340738786 -94.2798996156 -228.230145754 -0.000704518903168 -0.000704518903168 -0.000704518903168
1 5.408046227 8.10826392893 2.70037114714 304.614191387 76.4013991692 -212.89379078 -0.000704518903168 0.000704518903168 -0.000704518903168
1 8.10602268693 8.10891375044 0.000823202123458 -147.722799465 141.383548996 82.3117054454 0.000704518903168 0.000704518903168 -0.000704518903168
1 8.10745797807 5.40643120223 2.70245864416 -4.1936868518 143.111716015 -4.14409041868 0.000704518903168 -0.000704518903168 -0.000704518903168
1 5.40114445894 5.40131741801 5.40727206448 -385.562609428 -368.266703275 227.197939704 -0.000704518903168 -0.000704518903168 -0.000704518903168
1 5.40681052515 8.10642836147 8.1061238955 181.044007293 -107.155345962 -137.601943142 -0.000704518903168 0.000704518903168 0.000704518903168
1 8.10784984467 8.10485180673 5.40550093593 34.9929728759 -264.810818664 50.0850861566 0.000704518903168 0.000704518903168 -0.000704518903168
1 8.10661483702 5.4063992404 8.10536827904 -88.5077910103 139.915532702 -213.163588544 0.000704518903168 -0.000704518903168 0.000704518903168
1 5.40611299931 5.40355377238 10.8066798151 111.291423447 -144.631267813 -332.009981999 -0.000704518903168 -0.000704518903168 0.000704518903168
1 5.40832855167 8.10823315839 13.5118105266 332.846658347 73.3243445913 -68.9388369974 -0.000704518903168 0.000704518903168 0.000704518903168
1 8.10780038549 8.10779539639 10.8110394584 30.0470547907 29.5481450818 103.95434101 0.000704518903168 0.000704518903168 0.000704518903168
1 8.1083293987 5.40614672831 13.5134793588 82.9483757291 114.664324308 97.9443896821 0.000704518903168 -0.000704518903168 0.000704518903168
1 5.40534475916 10.8089477594 16.213742475 34.4674095604 -105.215554223 -125.761009238 -0.000704518903168 0.000704518903168 -0.000704518903168
1 5.40505209181 13.5117201555 2.7001064046 5.20067498616 -77.9759432379 -239.368045054 -0.000704518903168 0.000704518903168 -0.000704518903168
1 8.10444013295 13.5116958779 16.2134020268 -305.978196235 -80.4036997408 -159.805820441 0.000704518903168 0.000704518903168 -0.000704518903168
1 8.10531707959 10.8111120416 2.70240867557 -218.283533137 111.212665854 -9.14094926269 0.000704518903168 0.000704518903168 -0.000704518903168
1 5.40501476157 10.8096383664 5.40326763465 1.4676511075 -36.1548526029 -173.245040738 -0.000704518903168 0.000704518903168 -0.000704518903168
1 5.40492800548 13.5120450051 8.10944620243 -7.20795856182 -45.490984764 194.628748235 -0.000704518903168 0.000704518903168 0.000704518903168
1 8.10667250351 13.5150765904 5.40876009246 -82.7411422741 257.667542406 376.000737096 0.000704518903168 0.000704518903168 -0.000704518903168
1 8.10750920315 10.8045728187 8.11063010728 0.928821611991 -542.709621763 313.019232014 0.000704518903168 0.000704518903168 0.000704518903168
1 5.40593657657 10.8096353926 10.8097732435 93.6491504641 -36.4522316064 -22.6671471811 -0.000704518903168 0.000704518903168 0.000704518903168
1 5.40670547457 13.5144981289 13.5141325971 170.538949166 199.821396208 163.268212679 -0.000704518903168 0.000704518903168 0.000704518903168
1 8.10634489433 13.513706423 10.8115575155 -115.502059682 120.650808825 155.760055723 0.000704518903168 0.000704518903168 0.000704518903168
1 8.10794391081 10.8089973642 13.5129539452 44.3995872107 -100.255068232 45.4030214736 0.000704518903168 0.000704518903168 0.000704518903168
1 10.8099189793 0.00126441757669 16.2101711468 -8.09356191827 126.433250487 -482.893819871 0.000704518903168 -0.000704518903168 -0.000704518903168
1 10.8121638566 2.7024032627 2.70158414568 216.394161047 -9.68223652889 -91.5939381067 0.000704518903168 -0.000704518903168 -0.000704518903168
1 13.5134118158 2.70093920783 0.000675113229886 91.190084262 -156.087722658 67.502816183 0.000704518903168 -0.000704518903168 -0.000704518903168
1 13.5126417839 16.2127129248 2.70444761415 14.1868919933 -228.716026895 194.752907718 0.000704518903168 -0.000704518903168 -0.000704518903168
1 10.8124893907 16.2127995319 5.40747170492 248.947575463 -220.05531199 247.161983673 0.000704518903168 -0.000704518903168 -0.000704518903168
1 10.808564643 2.70158211453 8.10455053312 -143.527190314 -91.7970528906 -294.938179797 0.000704518903168 -0.000704518903168 0.000704518903168
1 13.5128715767 2.70267666885 5.40849160254 37.1661795353 17.6583784104 349.151745462 0.000704518903168 -0.000704518903168 -0.000704518903168
1 13.5125401341 0.000244911927859 8.10771208364 4.02191863556 24.4826862556 21.2168705721 0.000704518903168 -0.000704518903168 0.000704518903168
1 10.807510208 0.00167855077277 10.8150873079 -248.970695475 167.846569829 508.739294171 0.000704518903168 -0.000704518903168 0.000704518903168
1 10.8087630167 2.70452126319 13.5150706392 -123.689824769 202.117811399 257.072422496 0.000704518903168 -0.000704518903168 0.000704518903168
1 13.512087337 2.70364016355 10.8098262099 -41.257797613 114.007847558 -17.3705063877 0.000704518903168 -0.000704518903168 0.000704518903168
1 13.5138840245 0.00181017959704 13.515530475 138.410959339 181.009452171 303.056002834 0.000704518903168 -0.000704518903168 0.000704518903168
1 10.8108435717 5.40574355699 16.2146380094 84.3656805466 74.3471921835 -36.2075641073 0.000704518903168 -0.000704518903168 -0.000704518903168
1 10.8111289988 8.10466813204 2.70207175597 112.908382535 -283.178287961 -42.8329093438 0.000704518903168 0.000704518903168 -0.000704518903168
1 13.5138046892 8.1056887276 16.2142745031 130.477429049 -181.118732348 -72.5581921915 0.000704518903168 0.000704518903168 -0.000704518903168
1 13.5113051461 5.40176059543 2.70137004557 -119.476880712 -323.948961649 -113.003948563 0.000704518903168 -0.000704518903168 -0.000704518903168
1 10.8098965783 5.40471231349 5.40263819018 -10.3336585765 -28.7771569308 -236.18948682 0.000704518903168 -0.000704518903168 -0.000704518903168
1 10.8097493661 8.10615675631 8.10522730831 -25.0548811229 -134.315861528 -227.260661259 0.000704518903168 0.000704518903168 0.000704518903168
1 13.5155157688 8.10688312823 5.40277590742 301.585380466 -61.678670039 -222.417763056 0.000704518903168 0.000704518903168 -0.000704518903168
1 13.5074672 5.40274047256 8.10916405623 -503.271491349 -225.961249124 166.414128586 0.000704518903168 -0.000704518903168 0.000704518903168
1 10.804901323 5.40601164518 10.811131945 -509.85918617 101.156010938 113.203010637 0.000704518903168 -0.000704518903168 0.000704518903168
1 10.8111066889 8.11018513226 13.5107482466 110.677399586 268.521730745 -175.166829281 0.000704518903168 0.000704518903168 0.000704518903168
1 13.516260844 8.10550166702 10.8104570868 376.092905463 -199.824790061 45.7171860375 0.000704518903168 0.000704518903168 0.000704518903168
1 13.5146856845 5.40432273066 13.5103291005 218.576951926 -67.7354403091 -217.081442512 0.000704518903168 -0.000704518903168 0.000704518903168
1 10.8108670875 10.8083435091 16.2147818159 86.717256632 -165.640584739 -21.8269139878 0.000704518903168 0.000704518903168 -0.000704518903168
1 10.8097034625 13.5148522012 2.70269287264 -29.6452431476 235.228626297 19.2787579908 0.000704518903168 0.000704518903168 -0.000704518903168
1 13.5153055473 13.5093406152 0.00535061535748 280.56323388 -315.929972645 535.05302595 0.000704518903168 0.000704518903168 -0.000704518903168
1 13.5080325788 10.8073018228 2.70206547394 -446.733612742 -269.809212004 -43.4611124364 0.000704518903168 0.000704518903168 -0.000704518903168
1 10.8093468976 10.8060983872 5.40367329192 -65.3017381775 -390.152771652 -132.679313761 0.000704518903168 0.000704518903168 -0.000704518903168
1 10.8108243849 13.5116350098 8.10703332596 82.4469955765 -86.4905110888 -46.6588972783 0.000704518903168 0.000704518903168 0.000704518903168
1 13.510508927 13.5089304584 5.40421375019 -199.098790775 -356.945653386 -78.6334866606 0.000704518903168 0.000704518903168 -0.000704518903168
1 13.510117223 10.8109704007 8.10852566782 -238.269187119 97.0485783885 102.575287219 0.000704518903168 0.000704518903168 0.000704518903168
1 10.810642962 10.8108657084 10.8117423215 64.3047059711 86.579347139 174.240660099 0.000704518903168 0.000704518903168 0.000704518903168
1 10.8133623524 13.5109368149 13.5148791159 336.24374792 -156.309999777 237.920093129 0.000704518903168 0.000704518903168 0.000704518903168
1 13.5115953372 13.5131560019 10.8094995364 -90.457773087 65.6086976915 -50.0378577463 0.000704518903168 0.000704518903168 0.000704518903168
1 13.5114351106 10.8139210477 13.5102214415 -106.480433673 392.113278768 -227.847341238 0.000704518903168 0.000704518903168 0.000704518903168
108
Atom. timestep:0.1
1 0.194713737299 0.245331190066 0.0157547288759 190.35577793 164.77935052 -18.1808247356 -0.00295740094208 -0.102693160366 -0.0485318361882
1 15.9152697856 2.40597055096 2.58847235214 -250.774524804 -220.277709754 -59.4220501568 0.0585446263292 0.0891315452996 0.0798755369348
1 2.53315198177 2.80719783698 15.8216713067 -185.452678975 52.2818911716 -275.1079673 -0.0389471270009 -0.0713777936464 0.152838047612
1 2.86798129054 0.383364634631 2.65581943991 152.484545412 283.735048019 -128.679188778 -0.0123598342116 -0.129899341157 -0.130042299318
1 16.1268645461 0.216997462781 5.39284345973 -88.236922476 147.668410637 -2.14689832528 -0.00464471925959 -0.0833347803238 0.0139476997753
1 16.0726535404 2.81306348273 7.87001853552 -81.9621138014 98.0312877515 -135.209368397 0.0820249704769 -0.0184045917558 0.137763007725
1 2.69558418072 2.29984518164 5.27559110327 -12.0980378187 -297.56915084 -40.7242734296 -0.00565277495849 0.13810871192 0.133257454624
1 2.97377809138 16.1149663817 8.28637862596 212.557069108 -73.9813052794 195.580461363 -0.0722859765841 0.0289389299326 0.0231192101079
1 16.1770634926 0.0786184778612 10.5349039252 -31.8363788788 93.1763011998 -261.484428038 0.010718970803 0.0173981187133 0.015727098655
1 16.1576204444 2.86000642838 13.2471261166 -61.0278032579 105.954714152 -211.673185408 -0.00553095003226 -0.0707301987822 0.069566006383
1 2.60587524218 3.03557406401 11.0410245886 -68.9709256491 301.327461954 177.982560865 0.0398187006045 -0.0344086504752 -0.0647308320269
1 2.63242077668 0.0062359028913 13.1787185893 -56.2868082607 41.3100225235 -283.273426466 0.0177036883931 0.0518248571618 0.05553801969
1 0.372821730122 5.55713252474 16.1117306581 174.548533336 51.6587722226 -51.9315337384 -0.282723372311 -0.142182276302 0.0655144123487
1 16.183463671 8.25122445976 2.6658892753 -17.2342706865 89.9916187279 -14.4573664766 0.0206212872424 -0.0665448424483 0.0291082460304
1 2.7388281286 7.66461980442 0.0891735594389 149.577817772 -240.491164857 50.4621108442 0.172787239135 0.283850046036 -0.0496403190696
1 3.00222816387 5.57610792902 2.63646929116 280.191769515 104.20936898 -8.61504476844 -0.0138538295398 -0.0873426294974 0.0862089949576
1 0.200117879494 5.26594949365 5.48613231298 168.185807291 -131.302786702 28.4477310171 -0.0358244414154 0.010341711072 -0.0686917808096
1 0.0822371230206 7.8898863977 8.35626957035 69.4553120636 -185.2185452 214.574104999 -0.00904288167681 0.0397134860152 -0.0437230777737
1 2.5361173634 7.88161796865 5.6548554159 -124.201435701 -186.311460193 209.590937942 0.0514168408743 0.0488345681601 -0.0464982243373
1 2.63588468425 5.41803062919 8.15238015229 -62.7901531371 -27.2696163741 81.8607545433 0.00432034404245 -0.0502978705041 0.0528374874861
1 16.0506343922 5.51269043145 11.0148560667 -42.334532022 38.1559935483 107.473036334 0.17319255535 -0.0953027903605 -0.128106478468
1 15.8273450576 8.00906553637 13.4344953157 -264.299331545 -27.244323213 -9.33496985468 0.15823279555 0.09189288849 0.101053014415
1 2.9416333365 7.93129323723 10.837173438 223.009653261 -163.877495284 45.7415690991 -0.0143905820643 0.0119799017551 0.0194462530108
1 2.68850186423 5.38781656175 13.6982840549 27.5953671364 40.9745539642 62.8963820117 0.0599956949354 0.0775521517378 -0.164881848872
1 0.310229715912 10.446511375 0.0968440153948 288.381459543 -311.507824303 45.3567113139 -0.0177118168644 0.0637079591935 -0.0694079736048
1 0.131224281956 13.3246324961 2.77438346255 130.551663557 -159.869523082 103.232770019 0.00738685549074 0.0333425829653 0.0461691804166
1 2.9177708868 13.5242180613 0.373528718348 141.146618612 20.1898173928 285.048271752 -0.107913739936 0.00974449590378 -0.117397265777
1 2.61589236472 10.821989111 2.8791642606 -38.5860747133 -18.1838614971 165.951149338 0.0585142484196 -0.0349121318031 -0.0118327838074
1 0.270451224229 10.6555440224 5.56505853819 219.986683777 -152.941020366 176.090260963 -0.0571704800321 -7.80633096336e-05 0.0230672263212
1 0.100933884694 13.5720427543 7.9775887698 38.4774173252 50.2870748465 -66.8551278071 -0.0956665985726 -0.00738961258873 0.0941544891532
1 2.45634000997 13.4737497602 5.67294109782 -168.576052179 -30.4786895631 201.582116123 0.109855408538 0.00769572636459 -0.092788082816
1 3.03539298616 10.6579632447 8.26385426211 289.335801199 -145.529040026 143.641573976 -0.0504278754471 0.00503089061247 -0.0195299539082
1 16.0673998347 10.8157512067 10.8564407284 -122.290451513 5.44918928422 24.945461914 0.0289166275334 0.00180919885169 -0.0242545481878
1 0.043146949191 13.7791471802 13.2061140722 -48.0327454445 251.508733076 -204.412152913 -0.134473873419 -0.0110117197419 0.127817007086
1 2.54396055966 13.420914848 11.1478799738 -70.7765245811 -66.6775706971 169.462594934 0.123946526508 0.039250508062 -0.237194518661
1 2.69699541188 11.0792681859 13.4505881037 2.84851097431 187.970703629 -0.598792598332 0.0114514023511 -0.109571158238 0.0921796311992
1 5.60342448645 16.0748591764 16.0638009408 156.385734569 -69.1643959139 -97.6646512669 -0.0491380309273 0.0930407021288 0.0743752577036
1 5.4990024611 2.74520323943 2.82306179702 118.105781595 39.5717585031 96.2224948132 0.0327632547527 0.00100768094333 -0.0242325358413
1 8.41839046066 2.42710519281 0.269688254271 234.296018556 -192.333724388 230.53285005 -0.0954379892584 0.109815590369 -0.0496043672461
1 8.36864095658 16.0656953148 2.47989978286 212.927502943 -141.406193686 -168.798732159 -0.0680437997615 0.00866421966698 0.0638230085863
1 5.15515223786 15.9292547525 5.58946244575 -197.919990707 -266.537237611 148.581403878 0.0573162290561 0.0173670375594 -0.0467094973402
1 5.53459547026 2.70230152517 8.221209416 111.408451858 -53.8818684715 85.9736066419 -0.0204534411351 -0.0726490117434 -0.0380011453108
1 8.24573659671 2.61077807767 5.47252199516 95.7480077583 -94.7792492993 15.9791408366 -0.058699076485 -0.00342881350596 -0.068071285744
1 8.6145188447 16.177926278 8.05892876261 414.030564962 -33.1892414589 23.2235056109 -0.111129101316 0.00192781879933 0.10137723488
1 5.45681226642 16.0316901454 10.8361351668 45.3379478107 -136.379171403 28.1486976054 -0.00776966582245 0.0552692260626 0.00502416573007
1 5.1995916584 2.71774895739 13.8826667182 -116.77241917 -23.9317606048 257.808154961 0.117683325807 -0.0597569382805 -0.147903093831
1 8.08998840459 2.68227163896 10.7042824473 -20.0830242531 -20.5720704938 -86.3032702209 0.000720825602832 -0.00408249782816 0.021535521799
1 8.04632803429 0.0146017244391 13.4062061751 -92.9499756078 40.0316712317 -50.2850854554 -0.0591580923541 0.0331824856674 0.0818900816768
1 5.56120435556 5.31806293004 16.0105637295 161.506539499 -57.780735315 -141.619313105 0.00584440983612 0.0472680891483 0.0827966629989
1 5.68007326667 8.17668759175 2.51201246622 198.435406095 52.9874410997 -134.26722005 -0.100273237079 -0.0183637213737 0.0747242648392
1 7.99015016544 8.24014209064 0.0698584844097 -43.4719118469 109.669063459 34.5495813635 0.0989754795576 -0.0269636876042 -0.0525197787601
1 8.1005175246 5.52855108944 2.69409344159 -11.4452001898 79.3613714921 -20.2447764994 -0.00467679670917 -0.0531317191575 -0.0180885159879
1 5.03768709728 5.04969863661 5.61946417716 -320.751913611 -319.550104883 183.508087221 0.0513569524779 0.0386227105684 -0.0351946049742
1 5.56614368264 7.9989627403 7.97298029865 106.948420654 -109.16411252 -125.042447663 -0.073763510085 -0.00245983337759 0.00854654986403
1 8.13227493005 7.85848387592 5.43434644834 5.16371797379 -201.151946936 -19.8397148457 -0.0216682808752 0.064981987531 -0.0672168009894
1 8.03224892343 5.52383609789 7.90394318762 -43.6760434026 61.3449597123 -171.769300235 0.0402459236479 -0.0823310768055 0.0442673881877
1 5.51779787031 5.27279645706 10.5054231369 111.763436614 -96.2166776693 -239.988097692 -0.00125991668685 0.0495209093847 0.0758335793892
1 5.71038281201 8.17086030703 13.4452035316 238.59809548 39.779188147 -59.1719431803 -0.0811062510141 -0.0291363058572 0.0132673861001
1 8.13466125149 8.1279102766 10.9157161856 17.7927065062 -3.01986093097 116.175776892 -0.0142883512163 -0.032696276598 0.0281360375218
1 8.18159740522 5.51339492265 13.6156674198 53.5586583677 96.2599340155 114.138916879 -0.0243146518814 -0.00966504113961 0.0189210229741
1 5.42043098723 10.7069211446 16.0888260769 -23.1117046993 -91.7870180636 -123.641790152 -0.0457800119709 0.016289068756 0.00168871583337
1 5.4196285243 13.4440808105 2.49799703086 50.4574344237 -47.38282184 -115.76332825 0.066119696393 0.0245356569662 0.120964739335
1 7.84539590405 13.4245991491 16.0650205063 -153.869700237 -105.374430622 -114.472714138 0.140809015083 -0.0282401542294 0.0545117157818
1 7.91580391618 10.9244143682 2.69483780187 -130.804041884 117.95871912 -7.08525902815 0.0734248644922 0.00518291566122 -0.00254810744886
1 5.40581124445 10.7748585355 5.24576808395 -2.41776932423 -32.6284735046 -125.324281392 -0.00538396786923 0.00185566894826 0.0402821894395
1 5.40329073518 13.4568865314 8.30096845384 8.11308070994 -74.9769918155 183.883570622 0.0108725689365 -0.0245133122848 -0.0108392502598
1 8.02716470375 13.7430542827 5.75791345725 -74.8530852471 167.061878272 290.020725234 0.0035184418337 -0.0769369684129 -0.0774124116463
1 8.11796982092 10.3065262068 8.39543095476 34.4105008919 -400.098435151 218.500802074 0.0341746440241 0.131955378178 -0.0952691275158
1 5.49685654644 10.7768647934 10.8029189794 86.8185354156 -25.7327071798 27.3324900747 -0.00262941777429 0.00802110682147 0.0451811067342
1 5.54801871818 13.6882734748 13.6503715428 69.5538862157 114.843067187 65.2675605235 -0.102658151887 -0.0788339820711 -0.106713943531
1 8.01138932801 13.6155409644 10.9582064249 -52.8758331786 61.9357942993 127.041287295 0.0531571615753 -0.0508836809877 -0.0246986717356
1 8.15641802471 10.7257991971 13.5541955545 58.3373490384 -47.2297932485 33.6493425088 0.0140190883182 0.0454244266448 -0.00867296839163
1 10.8113070425 0.0978189701296 15.7605690057 17.7262761395 33.0023576779 -382.70096528 0.0161453093348 -0.0794904819915 0.0807562363104
1 11.0185596013 2.67561527857 2.62423701445 182.341017916 -66.3301145815 -47.7738499828 -0.0346888605545 -0.0553408107681 0.0376843329181
1 13.5979860496 2.56330012966 0.055364574342 63.4339691656 -100.018300717 27.2040889711 -0.034551249159 0.0484829975198 -0.0354712806979
1 13.5240067974 15.9921041793 2.89007657651 7.61908835823 -205.852001993 169.099037354 -0.00254930084366 0.0162695692397 -0.0189571278377
1 11.0587074203 16.0056206163 5.62371591712 243.798586908 -183.909721489 148.800156085 -0.000923138164928 0.0258789654498 -0.088185084295
1 10.6778074321 2.62513422558 7.84196179694 -95.2884878526 -38.503523682 -195.53014738 0.0551614601422 0.0549143654299 0.0847640593896
1 13.531799031 2.72272138635 5.71755453351 -28.2890813014 25.3741521604 217.346520208 -0.0702268157652 0.00680105731057 -0.123961327268
1 13.5126679828 0.018529392876 8.1359542753 -4.14969854027 7.12464741945 42.91384448 -0.00226750074648 -0.0112952576266 0.0183415735272
1 10.5946144763 0.161032295543 11.2976202201 -128.147894072 142.749800943 422.804412475 0.121079198336 -0.0190777800628 -0.0841630921707
1 10.6964069577 2.910750013 13.7481602122 -89.498697688 216.728397304 180.546587536 0.0273767592386 0.0136844106191 -0.068206810722
1 13.4576506252 2.80188120007 10.7922554117 -76.5700905593 62.0437854342 -16.8932527023 -0.022694377394 -0.0488679057696 0.00281934755816
1 13.656338963 0.168579947977 13.7909816459 155.378333098 135.346209434 212.555497491 0.0212504546293 -0.0429483661587 -0.0859682719135
1 10.8906464186 5.48108106997 16.1742982567 70.0298095743 76.7214430153 -46.4889673688 -0.0120771994356 0.00154729137657 -0.00483258261768
1 10.9120066404 7.83095463767 2.65395597499 77.5428761013 -256.399498364 -58.7388072082 -0.0283824458233 0.0194678265206 -0.013424290508
1 13.6347564786 7.9296095332 16.145113149 100.100699256 -167.022909966 -54.8273153135 -0.0280638074319 0.0105562177877 0.0261706399321
1 13.4197300658 5.09960711137 2.59474956502 -33.957270211 -251.060357095 -92.0092296325 0.0738730598214 0.0726055913977 0.019322498868
1 10.805125913 5.36989541525 5.1787988832 6.45367784419 -50.4525353989 -195.073136759 0.0135056121178 -0.0231993261573 0.0396776704849
1 10.7972565965 7.97274382268 7.89507440309 11.3140879577 -132.777729538 -178.260057893 0.0273276461076 0.00042792054592 0.0366828045793
1 13.8054969082 8.03575026369 5.20278074773 262.875930302 -89.0671838248 -154.907608617 -0.0383338109647 -0.0210588519091 0.0568154035532
1 13.0257431054 5.1982088759 8.27071002386 -440.55782831 -159.48644031 153.616133694 0.0499188399686 0.0581093726934 -0.00862039481918
1 10.3292726153 5.49750358138 10.9128867329 -400.836983847 67.503652222 73.3186019999 0.100105346244 -0.0367063051223 -0.0413821432549
1 10.9281260729 8.35657905206 13.3494109513 130.529256964 198.661166095 -133.465156708 0.017300839854 -0.0625810296111 0.0349666170511
1 13.824671829 7.93425517616 10.8308177889 146.539525809 -98.751532128 -47.824653657 -0.224785377419 0.103087632525 -0.100992734549
1 13.6845083245 5.32898307787 13.3296749903 53.0854858134 -94.1305497279 -94.0963838977 -0.160514859819 -0.02415229871 0.118009402584
1 10.8854777224 10.6479172742 16.1953602058 49.4627945238 -151.275360677 -21.0134898656 -0.0320642379585 0.0102825640397 -0.00950798676423
1 10.7760041645 13.7227355136 2.71495941154 -29.4898739492 144.046439298 0.16926277664 0.0215390881709 -0.0912370996599 -0.0122937347305
1 13.7892618834 13.2080185898 0.505215205247 252.614296611 -275.80035211 425.901791927 -0.0358518443476 0.0277986012926 -0.0952092005467
1 13.0932432167 10.5445756219 2.66475292565 -350.350676696 -249.248853826 -22.5655733447 0.0817668213339 0.0169545449711 0.0209296322282
1 10.7327743991 10.4327665645 5.27828749529 -97.3734108301 -341.528339966 -109.323107978 -0.0242917121707 0.0376395489541 0.0213760321007
1 10.8826841946 13.4184854724 8.07440997156 50.4674205808 -105.827470957 -6.69223400266 -0.0277691455961 -0.0136905494216 0.0290651534347
1 13.3313895774 13.1553501146 5.32758858899 -142.680091509 -349.199263997 -75.2933731162 0.0405643531083 0.00308753454487 -0.00079782836761
1 13.2904894695 10.8875886428 8.20592322458 -182.053989759 34.805742531 89.2594564961 0.047381967515 -0.0534187820262 -0.00767418648879