108
Atom. timestep:0.0
1 0.00144442176828 0.000393539945567 16.214650785 144.43366953 39.3454879313 -34.930005343 -0.000704518903168 -0.000704518903168 -0.000704518903168
1 16.2149252182 2.69959403154 2.70294073737 -7.48668388357 -290.605350545 44.065230595 -0.000704518903168 -0.000704518903168 -0.000704518903168
1 2.70048958355 2.70223769787 0.00248318155525 -201.050150308 -26.2387194123 248.309647562 -0.000704518903168 -0.000704518903168 -0.000704518903168
1 2.70203713817 4.97256975474e-05 2.70358068661 -46.2946889652 4.96406334937 108.060153734 -0.000704518903168 -0.000704518903168 -0.000704518903168
1 16.2131694859 16.2141039192 5.40481502185 -183.05991885 -89.616587317 -18.5063211355 -0.000704518903168 -0.000704518903168 -0.000704518903168
1 0.000473340830096 2.70270898893 8.10878130341 47.3255763331 20.8903869515 128.138846988 -0.000704518903168 -0.000704518903168 0.000704518903168
1 2.70380452643 2.70219905596 5.40295737534 130.444135702 -30.1029104528 -204.27097129 -0.000704518903168 -0.000704518903168 -0.000704518903168
1 2.70236569792 0.00258390901385 8.1081566304 -13.4387142261 258.382393358 65.671545821 -0.000704518903168 -0.000704518903168 0.000704518903168
1 0.00153102539864 16.2143856291 10.8089073028 153.094032511 -61.4455939535 -109.261217623 -0.000704518903168 -0.000704518903168 0.000704518903168
1 0.000340853498867 2.70069294916 13.5134729892 34.076843295 -180.71358891 97.3074249439 -0.000704518903168 -0.000704518903168 0.000704518903168
1 2.699438478 2.70087065662 10.8100842002 -306.160704649 -162.942843639 8.42852830188 -0.000704518903168 -0.000704518903168 0.000704518903168
1 2.70243246897 0.000606036570247 13.5114166653 -6.76160902584 60.5951502633 -108.324965273 -0.000704518903168 -0.000704518903168 0.000704518903168
1 0.000627927676483 5.40715874904 16.2148688897 62.7842608728 215.866396407 -13.1195333182 -0.000704518903168 -0.000704518903168 -0.000704518903168
1 0.000519838172459 8.10708456744 2.70357217072 51.9753105397 -41.5347498396 107.208564764 -0.000704518903168 0.000704518903168 -0.000704518903168
1 2.70231985081 8.11003099144 16.2146355105 -18.0234251761 253.107648907 -36.4574545129 -0.000704518903168 0.000704518903168 -0.000704518903168
1 2.70306244695 5.4071214731 2.70353251211 56.2361887227 212.138801843 103.242703811 -0.000704518903168 -0.000704518903168 -0.000704518903168
1 16.2146305504 5.4052913637 5.40755522959 -36.9534665804 29.1278633151 255.514450699 -0.000704518903168 -0.000704518903168 -0.000704518903168
1 0.000198211070941 8.10707823028 8.10866984183 19.8126005937 -42.168465654 116.992688795 -0.000704518903168 0.000704518903168 0.000704518903168
1 2.70337481959 8.10573473443 5.40580427053 87.4734516744 -176.518049935 80.4185461394 -0.000704518903168 0.000704518903168 -0.000704518903168
1 2.700619134 5.40327030126 8.10827893515 -188.095105538 -172.978379591 77.9020205362 -0.000704518903168 -0.000704518903168 0.000704518903168
1 0.00211249129154 5.40541421592 10.8096045306 211.240621428 41.4130850655 -39.5384330251 -0.000704518903168 -0.000704518903168 0.000704518903168
1 0.000726683216705 8.10640819779 13.5126987153 72.6598148319 -109.171713952 19.8800406205 -0.000704518903168 0.000704518903168 0.000704518903168
1 2.70338823046 8.10697755259 10.8122039235 88.8145387729 -52.2362341249 220.400856387 -0.000704518903168 0.000704518903168 0.000704518903168
1 2.70219980776 5.40767941951 13.5114977546 -30.027730483 267.933442583 -100.21603134 -0.000704518903168 -0.000704518903168 0.000704518903168
1 0.00177787235888 10.8094594324 0.00180484194667 177.778728377 -54.0482501265 180.475687139 -0.000704518903168 0.000704518903168 -0.000704518903168
1 0.00178335997115 13.515477445 2.70286629901 178.3274896 297.753001208 36.6213939961 -0.000704518903168 0.000704518903168 -0.000704518903168
1 2.70154936908 13.5144924329 16.2149258357 -95.071597879 199.251798806 -7.42494045469 -0.000704518903168 0.000704518903168 -0.000704518903168
1 2.70241857417 10.8088892386 2.70154732479 -8.15108973943 -111.067629603 -95.2760263252 -0.000704518903168 0.000704518903168 -0.000704518903168
1 16.214687556 10.8086034423 5.40477413716 -31.2529079968 -139.647266262 -22.5947904182 -0.000704518903168 0.000704518903168 -0.000704518903168
1 0.00221868098429 13.5114977833 8.10695773857 221.859590635 -100.213164141 -54.2176363768 -0.000704518903168 0.000704518903168 0.000704518903168
1 2.70331533579 13.5121252052 5.40509529104 81.5250723954 -37.4709687822 9.52059780668 -0.000704518903168 0.000704518903168 -0.000704518903168
1 2.70300730774 10.8111620385 8.10675392729 50.7222673489 116.212355661 -74.5987645881 -0.000704518903168 0.000704518903168 0.000704518903168
1 0.000376783429793 10.8100904201 10.8106467102 37.6698363646 9.05051344572 64.6795272397 -0.000704518903168 0.000704518903168 0.000704518903168
1 16.2135566625 13.513117006 13.5101305307 -144.34225113 61.7091030955 -236.938417636 -0.000704518903168 0.000704518903168 0.000704518903168
1 2.70409217506 13.5138910512 10.8083865646 159.208998593 139.113624744 -161.335035378 -0.000704518903168 0.000704518903168 0.000704518903168
1 2.70326067281 10.8093036694 13.5126340101 76.0587739292 -69.6245488659 13.409512628 -0.000704518903168 0.000704518903168 0.000704518903168
1 5.40282498187 0.00019928842733 0.000542907570358 -217.510318368 19.9203362319 54.2822503148 -0.000704518903168 -0.000704518903168 -0.000704518903168
1 5.40550963909 2.70221001779 2.70193252378 50.9554021369 -29.0067273093 -56.7561275487 -0.000704518903168 -0.000704518903168 -0.000704518903168
1 8.1088799439 2.70322702995 0.00227880066714 138.002894991 72.6944885179 227.871558882 0.000704518903168 -0.000704518903168 -0.000704518903168
1 8.10766733109 16.2149932462 2.70301117219 16.741615078 -0.683886497689 51.1087119095 0.000704518903168 -0.000704518903168 -0.000704518903168
1 5.4054775318 0.00101395098257 5.40050945367 47.7446732936 101.386591234 -449.0631366 -0.000704518903168 -0.000704518903168 -0.000704518903168
1 5.40336616602 2.70365336736 8.1073038469 -163.39190364 115.328229161 -19.6068034159 -0.000704518903168 -0.000704518903168 0.000704518903168
1 8.10735825897 2.70325346241 5.40401119546 -14.1655963632 75.3377342823 -98.8889593974 0.000704518903168 -0.000704518903168 -0.000704518903168
1 8.10701029144 16.2118717226 8.10758706237 -48.962348964 -312.836247678 8.71474293859 0.000704518903168 -0.000704518903168 0.000704518903168
1 5.40460769629 0.00215256043511 10.8100499434 -39.2388773243 215.24753576 5.00284345202 -0.000704518903168 -0.000704518903168 0.000704518903168
1 5.40402362065 2.69877217147 13.5113059829 -97.6464409602 -372.791356965 -119.39320598 -0.000704518903168 -0.000704518903168 0.000704518903168
1 8.10896159677 2.70466046601 10.8079858076 146.168182626 216.038092825 -201.410736032 0.000704518903168 -0.000704518903168 0.000704518903168
1 8.10799490305 0.000293822573318 13.51050434 49.498810803 29.3737507702 -199.557489423 0.000704518903168 -0.000704518903168 0.000704518903168
1 5.40661784867 5.40531286593 16.2120742851 161.776359911 31.2780859352 -292.579999148 -0.000704518903168 -0.000704518903168 -0.000704518903168
1 5.40566711223 8.10816751499 2.70261500725 66.7027164163 66.7600053166 11.4922189897 -0.000704518903168 0.000704518903168 -0.000704518903168
1 8.10868357056 8.10840954531 0.000933054741418 118.365561964 90.9630371901 93.2969671711 0.000704518903168 0.000704518903168 -0.000704518903168
1 8.10753310272 5.40463536896 2.70342200455 3.31877802135 -36.471610117 92.1919480473 0.000704518903168 -0.000704518903168 -0.000704518903168
1 5.40399723743 5.40285574738 5.40255553356 -100.284762452 -214.433766989 -244.455148556 -0.000704518903168 -0.000704518903168 -0.000704518903168
1 5.40364914383 8.10903180107 8.10674759761 -135.09412203 153.188612206 -75.2317321034 -0.000704518903168 0.000704518903168 0.000704518903168
1 8.10825718591 8.10595085214 5.40658487397 75.7270969592 -154.906278176 158.478889685 0.000704518903168 0.000704518903168 -0.000704518903168
1 8.10916802837 5.40322411796 8.10718648098 166.811342457 -177.596709238 -31.3433955087 0.000704518903168 -0.000704518903168 0.000704518903168
1 5.40511200874 5.40383985797 10.8090818495 11.1923672079 -116.022708501 -91.8065421945 -0.000704518903168 -0.000704518903168 0.000704518903168
1 5.40680184624 8.10936497641 13.5143792704 180.17611624 186.506145784 187.935541999 -0.000704518903168 0.000704518903168 0.000704518903168
1 8.10997038912 8.10763903269 10.8086050612 247.047416833 13.9117756088 -139.485370231 0.000704518903168 0.000704518903168 0.000704518903168
1 8.10767148755 5.40413637041 13.5155821917 17.1572610753 -86.3714646673 308.227673479 0.000704518903168 -0.000704518903168 0.000704518903168
1 5.4037136321 10.8102431951 0.000517033097812 -128.645295512 24.3280137934 51.6948030767 -0.000704518903168 0.000704518903168 -0.000704518903168
1 5.4040564276 13.5097019975 2.7044213601 -94.3657462353 -279.791741665 192.127502811 -0.000704518903168 0.000704518903168 -0.000704518903168
1 8.10637401264 13.5089674571 0.00230001983876 -112.590228811 -353.245778651 229.99347603 0.000704518903168 0.000704518903168 -0.000704518903168
1 8.1084614065 10.8102344453 2.70268504102 96.1491553939 23.4530376057 18.4955954129 0.000704518903168 0.000704518903168 -0.000704518903168
1 5.40610874963 10.8081737054 5.40421280015 110.866456162 -182.620950315 -78.7284912736 -0.000704518903168 0.000704518903168 -0.000704518903168
1 5.40534694244 13.5125313895 8.10718576036 34.6857371929 3.14745773901 -31.4154577696 -0.000704518903168 0.000704518903168 0.000704518903168
1 8.10866312165 13.5111051196 5.40548960153 116.320670403 -139.479529103 48.9516466036 0.000704518903168 0.000704518903168 -0.000704518903168
1 8.10766994314 10.8101011412 8.10729675767 17.0028202406 10.1226248142 -20.315726049 0.000704518903168 0.000704518903168 0.000704518903168
1 5.40587947768 10.8123088843 10.8114032285 87.9392608447 230.896930057 140.331357837 -0.000704518903168 0.000704518903168 0.000704518903168
1 5.40363403303 13.5108770029 13.5142551537 -136.6052022 -162.291207277 175.523879124 -0.000704518903168 0.000704518903168 0.000704518903168
1 8.10818599549 13.5134399152 10.8083594522 68.6080551745 94.0000228872 -164.046270633 0.000704518903168 0.000704518903168 0.000704518903168
1 8.1069880211 10.8109316609 13.5113189512 -51.1893830115 93.1745926091 -118.096372984 0.000704518903168 0.000704518903168 0.000704518903168
1 10.8116499293 0.000674739288324 0.00169355603435 165.001431807 67.4654220271 169.347095977 0.000704518903168 -0.000704518903168 -0.000704518903168
1 10.8108497537 2.70060801821 2.70296413986 84.9838803231 -189.206683847 46.40547883 0.000704518903168 -0.000704518903168 -0.000704518903168
1 13.5129047003 2.70361787667 0.000870500928598 40.4785402448 111.779160266 87.0415859291 0.000704518903168 -0.000704518903168 -0.000704518903168
1 13.5123823971 0.00143680661412 2.70357920147 -11.7517803758 143.672154119 107.91163951 0.000704518903168 -0.000704518903168 -0.000704518903168
1 10.8070177694 0.000770746708389 5.40715813524 -298.214551153 77.0661639721 215.805016418 0.000704518903168 -0.000704518903168 -0.000704518903168
1 10.8110626706 2.70103045983 8.10694963111 106.275564901 -146.962522234 -55.0283824807 0.000704518903168 -0.000704518903168 0.000704518903168
1 13.5106119186 2.70237778133 5.40116273523 -188.799629208 -12.230373469 -383.734980759 0.000704518903168 -0.000704518903168 -0.000704518903168
1 13.5121656911 0.000209332827683 8.11048809085 -33.4223785285 20.9247762608 298.817589054 0.000704518903168 -0.000704518903168 0.000704518903168
1 10.8100088127 16.2142232326 10.8095172942 0.8897714784 -77.6852453773 -48.2620764934 0.000704518903168 -0.000704518903168 0.000704518903168
1 10.8084180738 2.70564510395 13.5131434205 -158.184112379 314.50188659 64.3505536481 0.000704518903168 -0.000704518903168 0.000704518903168
1 13.5147291259 2.70188985464 10.8097908622 222.92109969 -61.02304174 -20.9052727046 0.000704518903168 -0.000704518903168 0.000704518903168
1 13.5130025164 0.000654887935536 13.5106171109 50.2601442752 65.480286761 -188.280400953 0.000704518903168 -0.000704518903168 0.000704518903168
1 10.8076800651 5.40642670444 0.00223778670845 -231.984981782 142.661937164 223.770163039 0.000704518903168 -0.000704518903168 -0.000704518903168
1 10.8097489859 8.10839991222 2.70419113951 -25.0929025341 89.9997278583 169.105443753 0.000704518903168 0.000704518903168 -0.000704518903168
1 13.513657449 8.10425064329 0.000205421376903 115.753410149 -324.927162084 20.5336311853 0.000704518903168 0.000704518903168 -0.000704518903168
1 13.5134004248 5.40672985043 2.70312230229 90.0509844702 172.976535183 62.2217217615 0.000704518903168 -0.000704518903168 -0.000704518903168
1 10.8100233745 5.4061076689 5.40470527716 2.34595687118 110.758382721 -29.4807903263 0.000704518903168 -0.000704518903168 -0.000704518903168
1 10.8087250141 8.10552279196 8.1079976276 -127.49008192 -197.712296455 49.7712661627 0.000704518903168 0.000704518903168 0.000704518903168
1 13.5122563524 8.10801339531 5.40417051836 -24.3562531578 51.3480368884 -82.9566703177 0.000704518903168 0.000704518903168 -0.000704518903168
1 13.5128698634 5.40267033513 8.11057912747 36.9948483962 -232.974991861 307.921250986 0.000704518903168 -0.000704518903168 0.000704518903168
1 10.8084425102 5.40656601601 10.8088476419 -155.740470668 156.593093858 -115.227299903 0.000704518903168 -0.000704518903168 0.000704518903168
1 10.8109718626 8.10695424989 13.5102907926 97.1947622608 -54.5665042104 -220.91223403 0.000704518903168 0.000704518903168 0.000704518903168
1 13.5117078872 8.10548151675 10.8101449023 -79.202769162 -201.839817817 14.4987353365 0.000704518903168 0.000704518903168 0.000704518903168
1 13.5127942284 5.40389504065 13.5134742129 29.4313471859 -110.504440351 97.4297931601 0.000704518903168 -0.000704518903168 0.000704518903168
1 10.8067734616 10.8094332637 0.000439198692599 -322.645332489 -56.665124007 43.9113626053 0.000704518903168 0.000704518903168 -0.000704518903168
1 10.8063869539 13.5130681011 2.70130706014 -361.296105824 56.8186197159 -119.302491539 0.000704518903168 0.000704518903168 -0.000704518903168
1 13.5101303393 13.5117624609 16.2142805794 -236.957562052 -73.7454080321 -71.950569776 0.000704518903168 0.000704518903168 -0.000704518903168
1 13.5135660233 10.8091717494 2.70306189361 106.610831115 -82.8165502634 56.1808545999 0.000704518903168 0.000704518903168 -0.000704518903168
1 10.810400222 10.8132307962 5.40685078732 40.0307066541 323.088123076 185.070224111 0.000704518903168 0.000704518903168 -0.000704518903168
1 10.8092729133 13.5151776374 8.10567300206 -72.7001680872 267.772240498 -182.691286566 0.000704518903168 0.000704518903168 0.000704518903168
1 13.5102862224 13.5109323341 5.40199873805 -221.369257186 -156.758085037 -300.134699633 0.000704518903168 0.000704518903168 -0.000704518903168
1 13.5146566892 10.8102536361 8.10731496892 215.677421395 25.3721115821 -18.4946013414 0.000704518903168 0.000704518903168 0.000704518903168
1 10.8060273827 10.8108812016 10.8062681087 -397.253225246 88.1286626299 -373.180619208 0.000704518903168 0.000704518903168 0.000704518903168
1 10.810064828 13.5100761912 13.5135854933 6.49131074302 -242.372372572 108.557833346 0.000704518903168 0.000704518903168 0.000704518903168
1 13.5117265762 13.5100255144 10.8135023791 -77.3338714919 -247.440048321 350.246413679 0.000704518903168 0.000704518903168 0.000704518903168
1 13.5128779295 10.8105909854 13.5114373889 37.8014517371 59.1070489305 -106.252599505 0.000704518903168 0.000704518903168 0.000704518903168
108
Atom. timestep:0.1
1 0.125395987664 0.0311806636943 16.1778879008 82.6568707475 14.5269837748 -39.0974877377 -0.0509622867518 -0.018544284433 -0.00122230148637
1 16.2065538578 2.43636363946 2.75013156055 -11.2843045292 -211.920944273 54.2702597626 -0.00535339867239 0.0590687287437 0.0101505608146
1 2.51582431528 2.68968079795 0.23704004362 -151.323527859 13.4272165986 208.573697669 0.0415110127266 0.0307380915386 -0.0306010742428
1 2.66325382292 0.00220672664288 2.80588294812 -22.3803278832 -1.71580732043 87.9545412736 0.022004786638 -0.00238012118826 -0.0203784596436
1 16.0360292106 16.1301029899 5.4056532411 -165.72025691 -72.7007755274 39.9714885663 0.0130044514603 0.0137987513894 0.0481418439898
1 0.0359204278524 2.71446000184 8.21469483861 9.73743000285 -7.13469009923 62.4072179456 -0.0339526973787 -0.023908301676 -0.0525119500035
1 2.81657983094 2.67356763838 5.20961765508 77.3772560184 -25.7339595419 -170.507486343 -0.0430152315204 0.00358257480165 0.0286884346722
1 2.69553672563 0.242817278049 8.15219246657 5.51717186884 201.871465399 1.10152355047 0.0143244671655 -0.0486552729143 -0.0518903984958
1 0.138463861687 16.1434892985 10.7036094305 101.251484012 -92.2752095501 -96.7369205136 -0.0467450763683 -0.0290233635582 0.0102085669601
1 0.0332981912757 2.53796241805 13.6079607354 29.4980086936 -126.609069057 88.2553069457 -0.00559164584406 0.0442509925812 -0.00799659176414
1 2.41729653726 2.55892446706 10.8278692927 -229.43926178 -95.7652218551 39.6104845312 0.0689612527392 0.0604432857629 0.0293976942312
1 2.69043527816 0.0454412514741 13.4111334511 -24.6682008564 9.03150563483 -83.6428971778 -0.0180114151353 -0.0482811547184 0.0207545758551
1 0.073930327243 5.60075906252 16.2080191696 98.6892769041 146.899903897 5.63719483622 0.0357186680446 -0.059172306073 0.0150995133702
1 0.0538773483036 8.06557728094 2.80958416452 55.7519390511 -40.2728867782 102.514049647 0.00207671585495 0.00254918241817 -0.00539699433571
1 2.69265786342 8.33622354202 16.1807217556 6.95434917259 166.887176474 -30.607069647 0.0203554670733 -0.0781998102053 0.00178710798624
1 2.75217912927 5.6062587445 2.78840659115 33.3002237271 173.108211663 45.6855318169 -0.020487181819 -0.0318355305566 -0.0503907109381
1 16.173070138 5.42705482246 5.64888984676 -51.4028943001 9.48720254976 212.769490108 -0.0131258291189 -0.0122772771359 -0.0351079835239
1 0.0212721631845 8.0699625227 8.22385938844 23.855528043 -26.4589448422 111.297007384 0.00354849055441 0.0134091361588 -0.0049556596452
1 2.78402038104 7.94080590417 5.48698021918 65.4852439917 -141.288618397 83.0423569041 -0.0197924269279 0.0288209245659 0.00274171239042
1 2.53362596339 5.24157006819 8.17970044033 -121.360865316 -137.879280262 56.3532483499 0.0594793849985 0.0303485534199 -0.0208695873617
1 0.194636087684 5.44357378877 10.7836915322 152.0522322 33.0904789739 2.66689512366 -0.0524054914252 -0.00453920567112 0.0363292400084
1 0.0593616035232 8.01319521905 13.5285492228 29.104635892 -58.9693800844 6.9141276806 -0.0373774128093 0.0435291999009 -0.0116226439979
1 2.79846332332 8.07048394301 11.0101345517 107.307616782 -0.527539524767 148.010407677 0.0149468866472 0.0492839549171 -0.0668481885767
1 2.6854790499 5.64636224719 13.4281919726 11.2651382477 176.631945882 -43.8687312339 0.0356980203674 -0.0807667125444 0.0551014233561
1 0.158602876847 10.767391924 0.167762947375 111.848118766 -17.2190785896 136.972998992 -0.0583983698793 0.0316432611107 -0.0354924400814
1 0.163666510334 13.7887256422 2.73571258419 126.689190546 221.16565073 25.0050227482 -0.0461396790035 -0.0674589459517 -0.00988863082618
1 2.60948828718 13.697614761 16.2066658942 -84.9600046716 148.917334728 -9.90779592139 0.0099923408087 -0.0446279099366 -0.00179621818729
1 2.69405319787 10.7056486513 2.62642446761 -6.97550928182 -87.0735419943 -30.702051854 0.00392533831383 0.0197715050607 0.0588159179659
1 16.1934875503 10.67785281 5.3816080627 -0.60595606159 -113.28903661 -22.5556743131 0.0250652204045 0.0210690668121 0.00264711540418
1 0.20729286104 13.4213149374 8.05326019339 173.974763781 -69.8679628354 -51.7162162325 -0.0362994513391 0.0252829189622 0.00316557072845
1 2.78249124773 13.4779871031 5.41595475593 72.839715822 -26.9691333524 13.0714690391 -0.00952230502234 0.00946241193807 0.00254016652551
1 2.75519560906 10.9142868395 8.03789400872 55.5499441891 76.3917713782 -57.8653622129 0.00515483554719 -0.0330974965191 0.0127854407054
1 0.0448227340076 10.8131382214 10.8707671286 57.3968394437 -8.3644921277 50.6216123545 0.0146686842041 -0.0127128560104 -0.0117104645834
1 16.0907830089 13.5728855073 13.2967701311 -75.6782704146 58.2231458687 -164.164785316 0.0608395946265 -7.93145348248e-05 0.0617975762787
1 2.85906143333 13.6469286148 10.6577023785 146.446245408 121.754005931 -129.745325519 -0.0101772593479 -0.0129077911407 0.0247612431967
1 2.76787386917 10.7514220298 13.5228848826 42.0383308703 -36.4045972416 2.62786965417 -0.0268369609437 0.0244270453328 -0.0106230759495
1 5.20146608773 0.015046029785 0.0570898661267 -172.330027846 7.43863027699 60.3986340169 0.0325390273754 -0.00641921405827 0.00388524677846
1 5.45324488551 2.68224466066 2.62999906882 41.5021747412 -0.77011793532 -105.107911567 -0.00735790972504 0.0250447331366 -0.0431196873004
1 8.23676921546 2.76138040881 0.220194811066 109.91204788 30.9092947931 198.816703837 -0.0197404808776 -0.0307593901931 -0.023580863062
1 8.12081612255 16.2111055765 2.74348706887 9.9388586525 -6.35227169309 16.5188212078 0.000548112921229 0.00127793858035 -0.0322705398224
1 5.45462121685 0.090440295528 4.98800393258 49.8134536319 62.7637501036 -337.076834584 -0.00199407144213 -0.0354923899204 0.0957320000343
1 5.25267883514 2.80989087581 8.08222937971 -125.27830429 90.7208627987 -35.3949633035 0.0315198682669 -0.0165393433463 -0.0125951514149
1 8.0936297292 2.77335944269 5.31517156064 -12.8518682813 59.7207181586 -71.0513545927 0.000641981636651 -0.0129477039418 0.01944242175
1 8.04213358818 15.9370187048 8.11145896923 -98.1968685577 -194.077386785 -6.18632382206 -0.0420709648816 0.104392715586 -0.0144849505692
1 5.37198918646 0.1988428386 10.7999447329 -19.6583969047 154.726732449 -49.8910885783 0.0153339437735 -0.0568933984868 -0.060135845752
1 5.31272122987 2.36270390714 13.4079191472 -75.0165853582 -255.557781861 -64.2150725995 0.0235578190814 0.106395848635 0.057798350848
1 8.24664789678 2.89891834399 10.619426495 120.110184745 145.39407069 -157.158055891 -0.0222551835892 -0.0662701452247 0.0449339811882
1 8.15910615307 0.0245830166442 13.3273779837 54.5113815036 16.7194497106 -155.842980813 0.0037556231612 -0.00682207162788 0.0287087149845
1 5.545444161 5.43184455112 15.9458863965 84.4548265839 17.0762934146 -206.296357651 -0.0784434244161 -0.0110154124827 0.0823746741167
1 5.47476208542 8.16731413879 2.70901420286 73.317965892 43.2223209724 -4.24757760523 0.00417161746292 -0.0204239585621 -0.013545450825
1 8.21313640437 8.19599203896 0.0916046008216 69.3609574186 74.6814079378 85.3196972166 -0.0517708462819 -0.0234714808894 -0.00616809472081
1 8.10803051401 5.37597157664 2.79304622043 -6.07836282888 -12.1040586915 85.2391012697 -0.00928670997701 0.0215433313742 -0.00403590073649
1 5.31560344281 5.20571126086 5.18040994488 -61.4837705566 -161.759548557 -177.433930163 0.0359558795722 0.0443298125212 0.0549430412293
1 5.27852415026 8.24641448172 8.04471473037 -104.382966567 108.921831541 -33.3968569378 0.026346185537 -0.0321816904113 0.0371927120057
1 8.17486385888 7.96016653155 5.55734807707 45.1832131361 -127.367966947 135.126130832 -0.0292409245332 0.0225652531017 -0.0196444090992
1 8.25672429195 5.23499283216 8.06331676189 110.807923621 -147.704491372 -72.6068398742 -0.0428495853035 0.0280435975366 -0.0400354882812
1 5.41668601508 5.29651854825 10.726370288 11.301600246 -90.7468578537 -65.5501811186 -0.00133280022352 0.0195439464508 0.0199414237043
1 5.58572448704 8.28703665401 13.686536427 173.237746072 160.410036227 142.267816244 -0.0101737090088 -0.0210230214669 -0.034667277637
1 8.31827759628 8.11701788546 10.6806330606 125.656558049 3.66235146661 -102.196009635 -0.105591660967 -0.00299109378525 0.0340511058245
1 8.12280313861 5.33060916303 13.7921286401 19.2405530256 -44.4892298454 207.014260896 0.0146908300664 0.0400384459949 -0.0924310285367
1 5.28299436639 10.8333373892 0.056242521764 -105.397127226 20.2948134643 63.8421866929 0.0175174836799 -0.00387503891898 0.010198462826
1 5.31539788313 13.2445486328 2.88366694062 -75.630976447 -235.601308129 152.524281169 0.0179306409472 0.0368547957163 -0.0336854805007
1 7.98206165193 13.1893292567 0.208515785322 -153.715890733 -252.441999855 153.078337273 -0.0418614337848 0.0825464361846 -0.0708328282936
1 8.19304261618 10.8169321159 2.73986311214 59.9511382387 -30.2330331153 79.2380182572 -0.0306913681163 -0.0480699078483 0.056147551205
1 5.51292130703 10.6326714154 5.33229501365 98.6997470241 -161.254421152 -56.6662789505 -0.010016103114 0.0169619961128 0.0207051304864
1 5.43632299814 13.5176710879 8.06750753824 22.4756465015 4.45585159297 -54.3023607089 -0.011949985295 -0.00565862214535 -0.016517271225
1 8.20154108862 13.3817586587 5.44660845995 42.7507894993 -106.903839206 24.231842479 -0.0642589013991 0.0303613820037 -0.0216164306734
1 8.10680545494 10.8189853267 8.07335720432 -47.8088629176 5.12313522401 -71.3402178813 -0.0720070097162 -0.00652009494441 -0.0589972479034
1 5.48973562245 11.0280240627 10.936795847 73.4566051227 186.691584729 93.5912225092 -0.0152753634849 -0.0336935842862 -0.040890408088
1 5.27618121564 13.3697249137 13.6827488121 -110.488328676 -99.1738495527 156.475595064 0.0195651488906 0.0508071217819 -0.0129664164743
1 8.16574458143 13.6040982822 10.6609269657 35.7000084653 80.4164882207 -110.399601577 -0.0266004068369 -0.0166909714856 0.0498687083507
1 8.06222082855 10.8983978311 13.3989489229 -28.9698400768 77.9186331595 -99.629391485 0.0223938509193 -0.00966010634504 0.0168796911197
1 10.965827938 0.0649179442238 0.150327899095 134.631122043 58.6355363088 108.567164878 -0.0218357671308 -0.00675140824451 -0.0481086046569
1 10.8794048652 2.53113501958 2.74440465876 24.2432896966 -129.631478349 24.3189017764 -0.0674580109879 0.0483689709713 -0.0292464324078
1 13.5527655273 2.81501771313 0.0861851221424 39.1405029166 109.4944918 83.8346261368 -0.000384950330559 -0.00329123643468 0.000385636480387
1 13.4970513643 0.116301602255 2.79681827367 -20.3286202278 50.4259026537 59.4187943626 -0.00371006785099 -0.0856653543253 -0.0456652308433
1 10.5280757171 0.07474381656 5.59885877489 -241.900645113 71.8295144647 134.738754887 0.0428919489588 0.00202058366726 -0.0795792740073
1 10.9140648339 2.56411980424 8.05506307682 97.0429205549 -113.201336183 -42.585511266 -0.00612117919524 0.0325228113442 0.0145681490215
1 13.3380309657 2.69950986863 5.05883921622 -133.998814134 22.8951408365 -251.104876725 0.0559064031959 0.0393563462689 0.122587800721
1 13.4897803566 0.00962363630244 8.38832077681 0.223500776174 -13.657614768 237.975429975 0.0281664479996 -0.0281812396108 -0.0469575742058
1 10.8113864136 16.1437773166 10.7707938972 0.796867278952 -56.8705504025 -20.5986897934 -0.00228917900412 0.0158466594793 0.0209755222777
1 10.6662403845 2.99963257611 13.5739160512 -108.398767889 251.010510158 54.0436323122 0.0447742894359 -0.0558681499243 -0.00791484428275
1 13.7250556021 2.64611503783 10.8040301971 188.136911878 -47.3528740787 27.9202658421 -0.0237795273286 0.0074789956749 0.0446669115437
1 13.5541722691 0.0653792731888 13.3364238243 24.1187655047 60.3609814931 -147.604450969 -0.0194505889409 -0.00848892337433 0.0311578091244
1 10.5986960404 5.54464387477 0.223449142 -160.230860769 128.165557661 215.394613051 0.0623408968529 -0.0134957894589 -0.00819989609715
1 10.7860022133 8.20099317008 2.86940623738 -21.2271513334 96.6856957699 156.010674903 0.00265332738082 0.00397618762032 -0.012317022823
1 13.6140993384 7.81059345936 0.0173386301996 67.2315685617 -230.269643574 9.63989223306 -0.0440264584041 0.0787590754051 -0.0104193207296
1 13.6002447769 5.56495635266 2.7651361181 79.6801530604 128.099740929 63.206094421 -0.00929111176115 -0.0374161395113 0.00377511375787
1 10.8208179462 5.50262382663 5.37675585236 27.8246487987 67.1967924216 -26.0519151711 0.0208321829916 -0.0364219601637 0.000881621158944
1 10.7049024743 7.92585064966 8.14096220453 -54.0730651735 -141.714363777 -3.80081485485 0.0632482447335 0.0484272238724 -0.048072815641
1 13.4864171385 8.15629523035 5.34024045169 -27.7488797919 43.6250655147 -27.8476419156 -0.0010633638503 -0.00440266521083 0.0424844848057
1 13.5460945577 5.18196948511 8.39505592417 25.5338372397 -193.706652224 238.258615193 -0.0096106016866 0.0364141617337 -0.056518377949
1 10.6694589088 5.53853281879 10.708203901 -102.796106628 79.0611041005 -68.2035569548 0.0475444520992 -0.0683178987807 0.0425308502014
1 10.9019561864 8.06006150021 13.3080092883 76.6656741156 -31.9799157029 -162.864650533 -0.019540369024 0.0176393528092 0.0503383851998
1 13.4423548143 7.91818089343 10.8212702997 -46.1301804789 -160.311936742 3.59841792297 0.0319559519542 0.0307540154238 -0.0106984735206
1 13.5426129898 5.2937231842 13.6003660815 32.0561178588 -108.616246891 65.446982198 0.00433912663118 0.00303310594902 -0.026497690663
1 10.5192154526 10.7464362794 0.0389385421098 -212.797198462 -68.8831724706 26.2000063327 0.0974926304924 0.00143186413448 -0.0162913201684
1 10.4761395291 13.5692375623 2.59366336583 -263.584810412 54.6139837453 -82.1497587072 0.0864133896268 -0.00275965002636 0.0331227530404
1 13.291770937 13.4392561081 16.1531509667 -182.666170662 -71.2523558833 -39.2785133484 0.0423220948087 0.000274318440647 0.0270546038681
1 13.6117591003 10.7299275788 2.7433537554 83.2766351396 -75.8871593601 8.39166798679 -0.0160783789613 0.000345228788158 -0.038912452497
1 10.8452866311 11.0987995435 5.5843249356 21.2924759687 200.666816044 162.736174843 -0.0208756623267 -0.115059061926 -0.0159075632511
1 10.756500531 13.7617779807 7.94328534425 -9.45861889271 199.89195951 -116.539838997 0.0561312474757 -0.0613751207536 0.0614126955616
1 13.3073950518 13.3781282941 5.1141138418 -158.968340155 -78.5974975109 -267.882754857 0.0617228347802 0.0738284833745 0.0194285930044